From PySCF
GAUSSIAN              7 MOL ORBITALS     81 PRIMITIVES        3 NUCLEI
  O    1    (CENTRE  1)   0.00000000  0.00000000  0.22166487  CHARGE = 8.0
  H    2    (CENTRE  2)   1.43090062  0.00000000 -0.88665950  CHARGE = 1.0
  H    3    (CENTRE  3)  -1.43090062  0.00000000 -0.88665950  CHARGE = 1.0
CENTRE ASSIGNMENTS    1  1  1  1  1  1  1  1  1  1  1  1  1  1  1  1  1  1  1  1
CENTRE ASSIGNMENTS    1  1  1  1  1  1  1  1  1  1  1  1  1  1  1  1  1  1  1  1
CENTRE ASSIGNMENTS    1  1  1  1  1  1  1  2  2  2  2  2  2  2  2  2  2  2  2  2
CENTRE ASSIGNMENTS    2  2  2  2  3  3  3  3  3  3  3  3  3  3  3  3  3  3  3  3
CENTRE ASSIGNMENTS    3
TYPE ASSIGNMENTS      1  1  1  1  1  1  1  1  1  1  2  2  2  3  3  3  4  4  4  2
TYPE ASSIGNMENTS      3  4  2  3  4  5  8  9  6 10  7  5  8  9  6 10  7 11 14 15
TYPE ASSIGNMENTS     17 20 18 12 16 19 13  1  1  1  1  1  2  3  4  2  3  4  5  8
TYPE ASSIGNMENTS      9  6 10  7  1  1  1  1  1  2  3  4  2  3  4  5  8  9  6 10
TYPE ASSIGNMENTS      7
EXPONENTS  1.5330000E+04 2.2990000E+03 5.2240000E+02 1.4730000E+02 4.7550000E+01
EXPONENTS  1.6760000E+01 6.2070000E+00 6.8820000E-01 1.7520000E+00 2.3840000E-01
EXPONENTS  3.4460000E+01 7.7490000E+00 2.2800000E+00 3.4460000E+01 7.7490000E+00
EXPONENTS  2.2800000E+00 3.4460000E+01 7.7490000E+00 2.2800000E+00 7.1560000E-01
EXPONENTS  7.1560000E-01 7.1560000E-01 2.1400000E-01 2.1400000E-01 2.1400000E-01
EXPONENTS  2.3140000E+00 2.3140000E+00 2.3140000E+00 2.3140000E+00 2.3140000E+00
EXPONENTS  2.3140000E+00 6.4500000E-01 6.4500000E-01 6.4500000E-01 6.4500000E-01
EXPONENTS  6.4500000E-01 6.4500000E-01 1.4280000E+00 1.4280000E+00 1.4280000E+00
EXPONENTS  1.4280000E+00 1.4280000E+00 1.4280000E+00 1.4280000E+00 1.4280000E+00
EXPONENTS  1.4280000E+00 1.4280000E+00 3.3870000E+01 5.0950000E+00 1.1590000E+00
EXPONENTS  3.2580000E-01 1.0270000E-01 1.4070000E+00 1.4070000E+00 1.4070000E+00
EXPONENTS  3.8800000E-01 3.8800000E-01 3.8800000E-01 1.0570000E+00 1.0570000E+00
EXPONENTS  1.0570000E+00 1.0570000E+00 1.0570000E+00 1.0570000E+00 3.3870000E+01
EXPONENTS  5.0950000E+00 1.1590000E+00 3.2580000E-01 1.0270000E-01 1.4070000E+00
EXPONENTS  1.4070000E+00 1.4070000E+00 3.8800000E-01 3.8800000E-01 3.8800000E-01
EXPONENTS  1.0570000E+00 1.0570000E+00 1.0570000E+00 1.0570000E+00 1.0570000E+00
EXPONENTS  1.0570000E+00
MO  1                     OCC NO =   2.00000000 ORB. ENERGY = -20.55484690
  5.05337395E-01  9.41981474E-01  1.59743158E+00  2.41910605E+00  3.02208248E+00
  2.60725488E+00  1.01456600E+00 -2.84739511E-02  3.48499684E-02 -7.55435439E-03
 -2.96158827E-17 -2.87174440E-17 -1.93726181E-17  6.05197930E-17  5.86838415E-17
  3.95877728E-17 -6.32750076E-02 -6.13554729E-02 -4.13900396E-02 -2.06646867E-17
  9.97062994E-18 -1.07143576E-02  9.80564875E-18  2.39716764E-18 -2.33911236E-03
 -1.11117584E-03 -2.07156799E-19  1.09523521E-17 -3.73865994E-04 -2.81300057E-17
  1.48504184E-03 -6.73827369E-04  3.43483497E-20 -8.43607491E-18  3.24612697E-04
  2.08882795E-18  3.49214671E-04  3.23864463E-18 -9.97592921E-18  1.40571984E-03
 -3.06795611E-17 -2.60739061E-18  2.09636272E-17  5.34074280E-18 -4.44437685E-04
 -6.04629918E-18 -3.20427387E-04 -4.15804449E-04 -7.49920448E-04 -1.10575726E-03
  8.11185058E-04  8.37627040E-05  1.14956613E-04  2.84026941E-18 -8.92029459E-04
 -3.31795647E-04  3.16223291E-19 -2.51795524E-04  1.96521417E-04 -4.92475142E-18
  7.03677314E-04  7.33569701E-05  2.98691042E-18 -2.69878387E-04 -4.15804449E-04
 -7.49920448E-04 -1.10575726E-03  8.11185058E-04  8.37627040E-05 -1.14956613E-04
  2.76393975E-18 -8.92029459E-04  3.31795647E-04  3.28107457E-19 -2.51795524E-04
  1.96521417E-04  5.61102768E-18 -7.03677314E-04  7.33569701E-05  3.18967647E-18
 -2.69878387E-04
MO  2                     OCC NO =   2.00000000 ORB. ENERGY =  -1.34540749
 -6.80609282E-02 -1.27995690E-01 -2.18708464E-01 -3.46417525E-01 -4.75925441E-01
 -5.45167912E-01 -3.67897623E-01  2.80975618E-01  1.48145562E-01  6.87935083E-02
  5.78841733E-16  5.61281769E-16  3.78637366E-16  4.62217827E-16  4.48195811E-16
  3.02350246E-16 -2.33779479E-01 -2.26687455E-01 -1.52922018E-01 -7.02532278E-18
  4.00178991E-17 -5.94454139E-02 -4.17975949E-17  1.81473645E-17 -2.37382051E-03
  2.08287816E-02 -8.85662713E-18  3.66377050E-16 -2.92631677E-02 -1.91657813E-16
  8.43438611E-03  4.23408069E-03  3.71182795E-19 -1.50793156E-17 -6.19369854E-03
  9.98064315E-17  1.95961785E-03  2.08969914E-18 -6.50344598E-17 -2.33896812E-02
 -2.91991000E-16 -3.42332511E-17  2.85721902E-16  2.23829561E-17  1.45670465E-02
 -2.11440851E-18  2.94087823E-03  2.28711117E-02  4.12489919E-02  6.08216145E-02
  2.22465194E-02  8.56460439E-04 -2.17517547E-02  4.01164715E-17  1.52549169E-02
 -3.67893684E-03  1.24533745E-17  1.35034004E-03  1.94884220E-03 -9.65424683E-17
 -5.40595265E-03 -1.91508846E-03  1.74864169E-17 -3.37537370E-05  2.28711117E-02
  4.12489919E-02  6.08216145E-02  2.22465194E-02  8.56460439E-04  2.17517547E-02
  5.74802217E-17  1.52549169E-02  3.67893684E-03  9.83504871E-18  1.35034004E-03
  1.94884220E-03  9.96193981E-17  5.40595265E-03 -1.91508846E-03  2.28649874E-17
 -3.37537370E-05
MO  3                     OCC NO =   2.00000000 ORB. ENERGY =  -0.70942734
  2.66153148E-17  4.92592500E-17  8.30166189E-17  1.20942573E-16  1.37538179E-16
  7.64118989E-17 -1.91634779E-17  8.55057293E-17 -7.14833452E-17  1.02038293E-15
  1.41679870E+00  1.37381815E+00  9.26769611E-01 -2.30964260E-16 -2.23957640E-16
 -1.51080501E-16  1.13239953E-16  1.09804662E-16  7.40735765E-17  3.19879297E-01
 -4.18910237E-16 -3.10090757E-16  3.11248308E-02  5.91387683E-17 -9.16114598E-16
  6.23811265E-16 -8.85141559E-18 -1.68659982E-01 -8.92983742E-17 -3.91072910E-16
 -5.34512891E-16 -2.73596187E-16  8.28265440E-18 -2.95831608E-02  8.37535352E-18
  7.32300208E-16  2.65220834E-16  8.57680291E-03  2.43652168E-16  8.50972393E-16
 -2.87039143E-02 -5.03025262E-17  2.97350553E-03 -1.43425010E-16  2.72719979E-16
  1.86622863E-16 -3.74564124E-16  3.63679868E-02  6.55911618E-02  9.67141298E-02
  6.82570916E-02  8.19216661E-03 -1.91288304E-02 -6.04809302E-18  2.60225508E-02
 -7.52428816E-03  8.31600717E-17  8.95354176E-03  3.09948436E-03 -2.16508672E-16
 -1.71452874E-02 -6.49326106E-03  2.22905396E-16  3.39377670E-03 -3.63679868E-02
 -6.55911618E-02 -9.67141298E-02 -6.82570916E-02 -8.19216661E-03 -1.91288304E-02
 -3.19773667E-17 -2.60225508E-02 -7.52428816E-03  9.25021213E-17 -8.95354176E-03
 -3.09948436E-03  2.87851316E-16 -1.71452874E-02  6.49326106E-03  2.02786561E-16
 -3.39377670E-03
MO  4                     OCC NO =   2.00000000 ORB. ENERGY =  -0.57768039
 -1.04664472E-02 -1.99043254E-02 -3.43321967E-02 -5.73182708E-02 -8.67187988E-02
 -1.21937317E-01 -1.01989905E-01  9.76349007E-02  5.61988051E-02  6.90132790E-02
  7.18237880E-18  6.96449142E-18  4.69820477E-18 -1.85438724E-15 -1.79813184E-15
 -1.21300912E-15  1.55985785E+00  1.51253740E+00  1.02034880E+00  4.63749631E-16
 -3.12341482E-16  3.59164001E-01  1.80176168E-17 -9.36141111E-17  5.56881197E-02
  2.76913256E-04  1.87804528E-17 -7.34138251E-16  4.28409182E-02  3.02788809E-16
 -4.31178314E-02  2.39446542E-03 -1.24016739E-18 -8.02020128E-18  1.10645919E-02
 -1.73490509E-16 -1.34590574E-02 -4.13937550E-17  2.62242397E-17  2.00791576E-02
  5.63792168E-16  8.57965603E-17 -4.39610903E-16  7.48288865E-18 -2.56781650E-02
 -4.86729057E-17  1.86633581E-03 -2.19767629E-02 -3.96359969E-02 -5.84432543E-02
 -4.34661980E-02 -3.82155644E-03  1.87679845E-02 -8.25237737E-17  2.64437164E-03
  8.23396538E-03 -1.32465627E-17  6.38644090E-03 -6.63472783E-03  1.60889403E-16
  1.38853302E-03  2.91082277E-03 -2.35760513E-17  3.72390506E-03 -2.19767629E-02
 -3.96359969E-02 -5.84432543E-02 -4.34661980E-02 -3.82155644E-03 -1.87679845E-02
 -1.06464129E-16  2.64437164E-03 -8.23396538E-03 -9.39354855E-18  6.38644090E-03
 -6.63472783E-03 -1.78111110E-16 -1.38853302E-03  2.91082277E-03 -3.60669769E-17
  3.72390506E-03
MO  5                     OCC NO =   2.00000000 ORB. ENERGY =  -0.50444147
  2.02216168E-17  3.79533979E-17  6.47419439E-17  1.01543159E-16  1.36783643E-16
  1.48969041E-16  9.38037260E-17 -6.49020075E-17 -4.62104131E-17 -7.81138847E-19
 -1.83226412E-17 -1.77667986E-17 -1.19853774E-17 -1.74685195E+00 -1.69385878E+00
 -1.14266713E+00 -1.47555508E-15 -1.43079208E-15 -9.65203883E-16  3.41275407E-17
 -4.17717917E-01 -3.81553978E-16  1.88355917E-17 -7.80075882E-02 -7.07338895E-17
 -1.84805040E-17 -2.54570391E-17 -7.56961597E-17 -4.54684714E-17  6.54253604E-02
  6.39489755E-17  1.08401236E-17  2.56712456E-18 -6.28738223E-17 -2.83086155E-17
  2.35241017E-02  1.74684919E-17 -2.56296799E-17 -2.83140781E-02 -2.39042346E-17
  1.83450904E-17  1.11466816E-17  5.85439494E-17  1.37348592E-02  3.12453562E-17
 -1.28904994E-02 -2.44704055E-18  3.82316866E-17  6.89524212E-17  1.01670305E-16
 -3.20236529E-17  4.37193107E-19 -4.22973961E-17 -2.19439597E-02 -6.12267495E-18
  4.07713102E-17 -1.32812038E-02 -3.42004010E-17  9.89052909E-18  1.27859091E-02
 -6.53150750E-18 -1.06493850E-17 -8.97967916E-03  7.58855881E-19  2.50080728E-17
  4.51030892E-17  6.65044787E-17  5.41232041E-17  3.47258058E-18  2.22441466E-17
 -2.19439597E-02  3.35986535E-18  1.46935553E-17 -1.32812038E-02 -3.13340299E-19
  7.10881844E-18 -1.27859091E-02 -1.93797975E-17  6.19848585E-18 -8.97967916E-03
 -1.33073043E-17
MO  6                     OCC NO =   0.00000000 ORB. ENERGY =   0.14220524
 -2.50699732E-16 -4.81953356E-16 -8.38763616E-16 -1.46792773E-15 -2.39485173E-15
 -3.81534383E-15 -3.50926619E-15  3.61655203E-15 -2.05729849E-15  3.83676017E-14
  2.54875463E+00  2.47143464E+00  1.66721520E+00 -3.15457311E-14 -3.05887478E-14
 -2.06349886E-14  1.54187931E-15  1.49510427E-15  1.00858851E-15  4.81878063E-01
 -1.18675991E-14  6.26619092E-15  2.56275326E-04  1.26553828E-15 -4.50280755E-14
  2.18617635E-14 -7.84419408E-17 -3.21771540E-01  1.31537691E-14 -1.46106129E-14
 -3.50155325E-14 -1.01934183E-14  6.75587672E-16 -2.66270340E-02 -1.87524972E-15
  4.79956044E-14  1.20686680E-14  2.24717041E-02  1.82802939E-15  3.19419901E-14
 -1.32867654E-01  1.34388075E-16  6.54525418E-02  7.80372038E-16  7.91081539E-15
 -4.16914551E-15 -1.32842685E-14 -6.44097545E-02 -1.16165645E-01 -1.71286175E-01
 -1.55466712E-01 -1.28569252E-02 -8.92908108E-04 -5.37483906E-15  6.51826687E-03
  2.15105062E-02  6.89488936E-15 -1.51567948E-02  5.74499982E-03  8.58024671E-15
 -2.19779537E-02 -5.72007812E-03  1.80739606E-15 -2.49217050E-05  6.44097545E-02
  1.16165645E-01  1.71286175E-01  1.55466712E-01  1.28569252E-02 -8.92908108E-04
 -5.03512505E-15 -6.51826687E-03  2.15105062E-02  6.97688814E-15  1.51567948E-02
 -5.74499982E-03 -8.61232700E-15 -2.19779537E-02  5.72007812E-03  2.64078967E-15
  2.49217051E-05
MO  7                     OCC NO =   0.00000000 ORB. ENERGY =   0.20400831
 -5.60506021E-02 -1.05412354E-01 -1.80124776E-01 -2.85348271E-01 -3.92145848E-01
 -4.49540429E-01 -3.03662431E-01  2.32215111E-01  2.06296492E-01  8.44550822E-02
  1.22315653E-15  1.18605039E-15  8.00102587E-16 -9.00663924E-15 -8.73341040E-15
 -5.89150706E-15 -2.33570833E+00 -2.26485139E+00 -1.52785537E+00 -1.80419309E-14
 -1.82589293E-15 -4.07015284E-01 -1.81313380E-14  3.42330144E-16  1.61983051E-02
  9.36780671E-03 -1.01586456E-15 -1.38463131E-14 -1.71852422E-01  5.68974372E-15
  1.62484615E-01  1.44388596E-02  3.21618714E-16  3.67706159E-14 -1.19391822E-02
  1.04936879E-14 -2.49967746E-03 -1.71240548E-15  1.43955598E-15 -1.19165989E-01
  2.00652057E-14 -4.21059243E-15 -1.49279893E-14 -1.01956751E-15  9.61329045E-02
  1.61914656E-15  7.67769477E-03 -6.00137243E-02 -1.08237223E-01 -1.59595722E-01
 -1.53462669E-01 -6.70818721E-03  1.88009407E-02 -9.70776818E-16  2.66858196E-02
  4.31206148E-02  1.17383677E-15  9.93785827E-03 -1.51103155E-02  9.68506170E-16
 -4.21160139E-02 -1.96249545E-03 -2.53898415E-15  1.70728110E-02 -6.00137243E-02
 -1.08237223E-01 -1.59595722E-01 -1.53462669E-01 -6.70818721E-03 -1.88009407E-02
 -1.05551011E-16  2.66858196E-02 -4.31206148E-02  1.16387389E-15  9.93785827E-03
 -1.51103155E-02  5.51893297E-17  4.21160139E-02 -1.96249545E-03 -1.54344838E-15
  1.70728110E-02
END DATA
CCIQA
1-RDM:
1 1 2.0000000000
1 2 0.0000000000
1 3 0.0000000000
1 4 0.0000000000
1 5 0.0000000000
1 6 0.0000000000
1 7 0.0000000000
2 1 0.0000000000
2 2 1.9927243576
2 3 0.0000000000
2 4 0.0093529144
2 5 0.0000000000
2 6 0.0000000000
2 7 -0.0023402785
3 1 0.0000000000
3 2 0.0000000000
3 3 1.9778896914
3 4 0.0000000000
3 5 0.0000000000
3 6 -0.0091685877
3 7 0.0000000000
4 1 0.0000000000
4 2 0.0093529144
4 3 0.0000000000
4 4 1.9854073170
4 5 0.0000000000
4 6 0.0000000000
4 7 0.0159110871
5 1 0.0000000000
5 2 0.0000000000
5 3 0.0000000000
5 4 0.0000000000
5 5 1.9995238825
5 6 0.0000000000
5 7 0.0000000000
6 1 0.0000000000
6 2 0.0000000000
6 3 -0.0091685877
6 4 0.0000000000
6 5 0.0000000000
6 6 0.0225238227
6 7 0.0000000000
7 1 0.0000000000
7 2 -0.0023402785
7 3 0.0000000000
7 4 0.0159110871
7 5 0.0000000000
7 6 0.0000000000
7 7 0.0219309288
2-RDM:
1 1 1 1 2.0000000000
1 1 2 2 3.9854487152
1 1 2 4 0.0187058289
1 1 2 7 -0.0046805570
1 1 3 3 3.9557793828
1 1 3 6 -0.0183371754
1 1 4 2 0.0187058289
1 1 4 4 3.9708146340
1 1 4 7 0.0318221741
1 1 5 5 3.9990477650
1 1 6 3 -0.0183371754
1 1 6 6 0.0450476455
1 1 7 2 -0.0046805570
1 1 7 4 0.0318221741
1 1 7 7 0.0438618575
1 2 2 1 -1.9927243576
1 2 4 1 -0.0093529144
1 2 7 1 0.0023402785
1 3 3 1 -1.9778896914
1 3 6 1 0.0091685877
1 4 2 1 -0.0093529144
1 4 4 1 -1.9854073170
1 4 7 1 -0.0159110871
1 5 5 1 -1.9995238825
1 6 3 1 0.0091685877
1 6 6 1 -0.0225238227
1 7 2 1 0.0023402785
1 7 4 1 -0.0159110871
1 7 7 1 -0.0219309288
2 1 1 2 -1.9927243576
2 1 1 4 -0.0093529144
2 1 1 7 0.0023402785
2 2 1 1 3.9854487152
2 2 2 2 1.9877834065
2 2 2 4 0.0074488145
2 2 2 7 -0.0024149736
2 2 3 3 3.9443214287
2 2 3 6 -0.0182438101
2 2 4 2 0.0074488145
2 2 4 4 3.9583047378
2 2 4 7 0.0318985466
2 2 5 5 3.9844976614
2 2 6 3 -0.0182438101
2 2 6 6 0.0408117629
2 2 7 2 -0.0024149736
2 2 7 4 0.0318985466
2 2 7 7 0.0333515059
2 3 2 3 0.0040462963
2 3 2 6 -0.0003075550
2 3 3 2 -1.9686232684
2 3 3 4 -0.0117624988
2 3 3 7 0.0019582226
2 3 4 3 -0.0017105188
2 3 4 6 -0.0000274366
2 3 6 2 0.0089646575
2 3 6 4 0.0003024091
2 3 6 7 -0.0146380860
2 3 7 3 -0.0001155676
2 3 7 6 -0.0043651887
2 4 1 1 0.0187058289
2 4 2 2 0.0074488145
2 4 2 4 0.0036965037
2 4 2 7 0.0004479901
2 4 3 3 0.0141530533
2 4 3 6 0.0003885883
2 4 4 2 -1.9761136870
2 4 4 4 0.0062175328
2 4 4 7 0.0019563488
2 4 5 5 0.0187044809
2 4 6 3 -0.0001573676
2 4 6 6 0.0046223982
2 4 7 2 -0.0158967371
2 4 7 4 -0.0000430692
2 4 7 7 0.0143241213
2 5 2 5 0.0010488277
2 5 4 5 -0.0008441808
2 5 5 2 -1.9922488307
2 5 5 4 -0.0093522404
2 5 5 7 0.0023408857
2 5 7 5 -0.0001004126
2 6 2 3 -0.0003075550
2 6 2 6 -0.0334954027
2 6 3 2 0.0089646575
2 6 3 4 0.0003770254
2 6 3 7 -0.0147179418
2 6 4 3 -0.0000864634
2 6 4 6 0.0010784513
2 6 6 2 -0.0217478144
2 6 6 4 -0.0001285847
2 6 6 7 0.0003312652
2 6 7 3 0.0006372976
2 6 7 6 0.0000661533
2 7 1 1 -0.0046805570
2 7 2 2 -0.0024149736
2 7 2 4 0.0004479901
2 7 2 7 -0.0588518792
2 7 3 3 -0.0046973447
2 7 3 6 -0.0852239711
2 7 4 2 -0.0158967371
2 7 4 4 -0.0052076147
2 7 4 7 0.0628544823
2 7 5 5 -0.0046817714
2 7 6 3 0.0133037678
2 7 6 6 0.0001109466
2 7 7 2 -0.0144985212
2 7 7 4 -0.0111288523
2 7 7 7 0.0005088082
3 1 1 3 -1.9778896914
3 1 1 6 0.0091685877
3 2 2 3 -1.9686232684
3 2 2 6 0.0089646575
3 2 3 2 0.0040462963
3 2 3 4 -0.0017105188
3 2 3 7 -0.0001155676
3 2 4 3 -0.0117624988
3 2 4 6 0.0003024091
3 2 6 2 -0.0003075550
3 2 6 4 -0.0000274366
3 2 6 7 -0.0043651887
3 2 7 3 0.0019582226
3 2 7 6 -0.0146380860
3 3 1 1 3.9557793828
3 3 2 2 3.9443214287
3 3 2 4 0.0141530533
3 3 2 7 -0.0046973447
3 3 3 3 1.9684194746
3 3 3 6 -0.0096236760
3 3 4 2 0.0141530533
3 3 4 4 3.9335045270
3 3 4 7 0.0318468895
3 3 5 5 3.9548349347
3 3 6 3 -0.0096236760
3 3 6 6 0.0130696052
3 3 7 2 -0.0046973447
3 3 7 4 0.0318468895
3 3 7 7 0.0310778694
3 4 2 3 -0.0117624988
3 4 2 6 0.0003770254
3 4 3 2 -0.0017105188
3 4 3 4 0.0060232299
3 4 3 7 0.0005568799
3 4 4 3 -1.9606653333
3 4 4 6 0.0087988459
3 4 6 2 -0.0000864634
3 4 6 4 -0.0004065153
3 4 6 7 0.0068500415
3 4 7 3 -0.0154391472
3 4 7 6 0.0199334746
3 5 3 5 0.0018658271
3 5 5 3 -1.9774174673
3 5 5 6 0.0091848607
3 5 6 5 -0.0000780053
3 6 1 1 -0.0183371754
3 6 2 2 -0.0182438101
3 6 2 4 0.0003885883
3 6 2 7 -0.0852239711
3 6 3 3 -0.0096236760
3 6 3 6 -0.1481255144
3 6 4 2 -0.0001573676
3 6 4 4 -0.0190044405
3 6 4 7 0.1425632279
3 6 5 5 -0.0183697214
3 6 6 3 0.0026206363
3 6 6 6 0.0004550883
3 6 7 2 0.0133037678
3 6 7 4 -0.0202742698
3 6 7 7 0.0006064458
3 7 2 3 0.0019582226
3 7 2 6 -0.0147179418
3 7 3 2 -0.0001155676
3 7 3 4 0.0005568799
3 7 3 7 -0.0526382919
3 7 4 3 -0.0154391472
3 7 4 6 -0.0057364353
3 7 6 2 0.0006372976
3 7 6 4 0.0002795953
3 7 6 7 0.0003414980
3 7 7 3 -0.0201134248
3 7 7 6 0.0005573990
4 1 1 2 -0.0093529144
4 1 1 4 -1.9854073170
4 1 1 7 -0.0159110871
4 2 1 1 0.0187058289
4 2 2 2 0.0074488145
4 2 2 4 -1.9761136870
4 2 2 7 -0.0158967371
4 2 3 3 0.0141530533
4 2 3 6 -0.0001573676
4 2 4 2 0.0036965037
4 2 4 4 0.0062175328
4 2 4 7 -0.0000430692
4 2 5 5 0.0187044809
4 2 6 3 0.0003885883
4 2 6 6 0.0046223982
4 2 7 2 0.0004479901
4 2 7 4 0.0019563488
4 2 7 7 0.0143241213
4 3 2 3 -0.0017105188
4 3 2 6 -0.0000864634
4 3 3 2 -0.0117624988
4 3 3 4 -1.9606653333
4 3 3 7 -0.0154391472
4 3 4 3 0.0060232299
4 3 4 6 -0.0004065153
4 3 6 2 0.0003770254
4 3 6 4 0.0087988459
4 3 6 7 0.0199334746
4 3 7 3 0.0005568799
4 3 7 6 0.0068500415
4 4 1 1 3.9708146340
4 4 2 2 3.9583047378
4 4 2 4 0.0062175328
4 4 2 7 -0.0052076147
4 4 3 3 3.9335045270
4 4 3 6 -0.0190044405
4 4 4 2 0.0062175328
4 4 4 4 1.9767228552
4 4 4 7 0.0166166790
4 4 5 5 3.9698646764
4 4 6 3 -0.0190044405
4 4 6 6 0.0359068347
4 4 7 2 -0.0052076147
4 4 7 4 0.0166166790
4 4 7 7 0.0235475878
4 5 2 5 -0.0008441808
4 5 4 5 0.0016571046
4 5 5 2 -0.0093522404
4 5 5 4 -1.9849323382
4 5 5 7 -0.0159132618
4 5 7 5 0.0003232394
4 6 2 3 -0.0000274366
4 6 2 6 0.0010784513
4 6 3 2 0.0003024091
4 6 3 4 0.0087988459
4 6 3 7 -0.0057364353
4 6 4 3 -0.0004065153
4 6 4 6 -0.0469981764
4 6 6 2 -0.0001285847
4 6 6 4 -0.0211859696
4 6 6 7 -0.0004512608
4 6 7 3 0.0002795953
4 6 7 6 -0.0005351635
4 7 1 1 0.0318221741
4 7 2 2 0.0318985466
4 7 2 4 0.0019563488
4 7 2 7 0.0628544823
4 7 3 3 0.0318468895
4 7 3 6 0.1425632279
4 7 4 2 -0.0000430692
4 7 4 4 0.0166166790
4 7 4 7 -0.0966651677
4 7 5 5 0.0318265236
4 7 6 3 -0.0202742698
4 7 6 6 -0.0000725832
4 7 7 2 -0.0111288523
4 7 7 4 -0.0046401612
4 7 7 7 -0.0007384462
5 1 1 5 -1.9995238825
5 2 2 5 -1.9922488307
5 2 4 5 -0.0093522404
5 2 5 2 0.0010488277
5 2 5 4 -0.0008441808
5 2 5 7 -0.0001004126
5 2 7 5 0.0023408857
5 3 3 5 -1.9774174673
5 3 5 3 0.0018658271
5 3 5 6 -0.0000780053
5 3 6 5 0.0091848607
5 4 2 5 -0.0093522404
5 4 4 5 -1.9849323382
5 4 5 2 -0.0008441808
5 4 5 4 0.0016571046
5 4 5 7 0.0003232394
5 4 7 5 -0.0159132618
5 5 1 1 3.9990477650
5 5 2 2 3.9844976614
5 5 2 4 0.0187044809
5 5 2 7 -0.0046817714
5 5 3 3 3.9548349347
5 5 3 6 -0.0183697214
5 5 4 2 0.0187044809
5 5 4 4 3.9698646764
5 5 4 7 0.0318265236
5 5 5 5 1.9995238825
5 5 6 3 -0.0183697214
5 5 6 6 0.0447942664
5 5 7 2 -0.0046817714
5 5 7 4 0.0318265236
5 5 7 7 0.0431517562
5 6 3 5 0.0091848607
5 6 5 3 -0.0000780053
5 6 5 6 -0.0155710216
5 6 6 5 -0.0223971332
5 7 2 5 0.0023408857
5 7 4 5 -0.0159132618
5 7 5 2 -0.0001004126
5 7 5 4 0.0003232394
5 7 5 7 -0.0263198471
5 7 7 5 -0.0215758781
6 1 1 3 0.0091685877
6 1 1 6 -0.0225238227
6 2 2 3 0.0089646575
6 2 2 6 -0.0217478144
6 2 3 2 -0.0003075550
6 2 3 4 -0.0000864634
6 2 3 7 0.0006372976
6 2 4 3 0.0003770254
6 2 4 6 -0.0001285847
6 2 6 2 -0.0334954027
6 2 6 4 0.0010784513
6 2 6 7 0.0000661533
6 2 7 3 -0.0147179418
6 2 7 6 0.0003312652
6 3 1 1 -0.0183371754
6 3 2 2 -0.0182438101
6 3 2 4 -0.0001573676
6 3 2 7 0.0133037678
6 3 3 3 -0.0096236760
6 3 3 6 0.0026206363
6 3 4 2 0.0003885883
6 3 4 4 -0.0190044405
6 3 4 7 -0.0202742698
6 3 5 5 -0.0183697214
6 3 6 3 -0.1481255144
6 3 6 6 0.0004550883
6 3 7 2 -0.0852239711
6 3 7 4 0.1425632279
6 3 7 7 0.0006064458
6 4 2 3 0.0003024091
6 4 2 6 -0.0001285847
6 4 3 2 -0.0000274366
6 4 3 4 -0.0004065153
6 4 3 7 0.0002795953
6 4 4 3 0.0087988459
6 4 4 6 -0.0211859696
6 4 6 2 0.0010784513
6 4 6 4 -0.0469981764
6 4 6 7 -0.0005351635
6 4 7 3 -0.0057364353
6 4 7 6 -0.0004512608
6 5 3 5 -0.0000780053
6 5 5 3 0.0091848607
6 5 5 6 -0.0223971332
6 5 6 5 -0.0155710216
6 6 1 1 0.0450476455
6 6 2 2 0.0408117629
6 6 2 4 0.0046223982
6 6 2 7 0.0001109466
6 6 3 3 0.0130696052
6 6 3 6 0.0004550883
6 6 4 2 0.0046223982
6 6 4 4 0.0359068347
6 6 4 7 -0.0000725832
6 6 5 5 0.0447942664
6 6 6 3 0.0004550883
6 6 6 6 0.0130536060
6 6 7 2 0.0001109466
6 6 7 4 -0.0000725832
6 6 7 7 0.0100306838
6 7 2 3 -0.0146380860
6 7 2 6 0.0003312652
6 7 3 2 -0.0043651887
6 7 3 4 0.0068500415
6 7 3 7 0.0003414980
6 7 4 3 0.0199334746
6 7 4 6 -0.0004512608
6 7 6 2 0.0000661533
6 7 6 4 -0.0005351635
6 7 6 7 0.0074055926
6 7 7 3 0.0005573990
6 7 7 6 0.0046090295
7 1 1 2 0.0023402785
7 1 1 4 -0.0159110871
7 1 1 7 -0.0219309288
7 2 1 1 -0.0046805570
7 2 2 2 -0.0024149736
7 2 2 4 -0.0158967371
7 2 2 7 -0.0144985212
7 2 3 3 -0.0046973447
7 2 3 6 0.0133037678
7 2 4 2 0.0004479901
7 2 4 4 -0.0052076147
7 2 4 7 -0.0111288523
7 2 5 5 -0.0046817714
7 2 6 3 -0.0852239711
7 2 6 6 0.0001109466
7 2 7 2 -0.0588518792
7 2 7 4 0.0628544823
7 2 7 7 0.0005088082
7 3 2 3 -0.0001155676
7 3 2 6 0.0006372976
7 3 3 2 0.0019582226
7 3 3 4 -0.0154391472
7 3 3 7 -0.0201134248
7 3 4 3 0.0005568799
7 3 4 6 0.0002795953
7 3 6 2 -0.0147179418
7 3 6 4 -0.0057364353
7 3 6 7 0.0005573990
7 3 7 3 -0.0526382919
7 3 7 6 0.0003414980
7 4 1 1 0.0318221741
7 4 2 2 0.0318985466
7 4 2 4 -0.0000430692
7 4 2 7 -0.0111288523
7 4 3 3 0.0318468895
7 4 3 6 -0.0202742698
7 4 4 2 0.0019563488
7 4 4 4 0.0166166790
7 4 4 7 -0.0046401612
7 4 5 5 0.0318265236
7 4 6 3 0.1425632279
7 4 6 6 -0.0000725832
7 4 7 2 0.0628544823
7 4 7 4 -0.0966651677
7 4 7 7 -0.0007384462
7 5 2 5 -0.0001004126
7 5 4 5 0.0003232394
7 5 5 2 0.0023408857
7 5 5 4 -0.0159132618
7 5 5 7 -0.0215758781
7 5 7 5 -0.0263198471
7 6 2 3 -0.0043651887
7 6 2 6 0.0000661533
7 6 3 2 -0.0146380860
7 6 3 4 0.0199334746
7 6 3 7 0.0005573990
7 6 4 3 0.0068500415
7 6 4 6 -0.0005351635
7 6 6 2 0.0003312652
7 6 6 4 -0.0004512608
7 6 6 7 0.0046090295
7 6 7 3 0.0003414980
7 6 7 6 0.0074055926
7 7 1 1 0.0438618575
7 7 2 2 0.0333515059
7 7 2 4 0.0143241213
7 7 2 7 0.0005088082
7 7 3 3 0.0310778694
7 7 3 6 0.0006064458
7 7 4 2 0.0143241213
7 7 4 4 0.0235475878
7 7 4 7 -0.0007384462
7 7 5 5 0.0431517562
7 7 6 3 0.0006064458
7 7 6 6 0.0100306838
7 7 7 2 0.0005088082
7 7 7 4 -0.0007384462
7 7 7 7 0.0123570982
