From PySCF
GAUSSIAN              5 MOL ORBITALS    415 PRIMITIVES        3 NUCLEI
  O    1    (CENTRE  1)   0.00000000  0.00000000  0.22166487  CHARGE = 8.0
  H    2    (CENTRE  2)   1.43090062  0.00000000 -0.88665950  CHARGE = 1.0
  H    3    (CENTRE  3)  -1.43090062  0.00000000 -0.88665950  CHARGE = 1.0
CENTRE ASSIGNMENTS    1  1  1  1  1  1  1  1  1  1  1  1  1  1  1  1  1  1  1  1
CENTRE ASSIGNMENTS    1  1  1  1  1  1  1  1  1  1  1  1  1  1  1  1  1  1  1  1
CENTRE ASSIGNMENTS    1  1  1  1  1  1  1  1  1  1  1  1  1  1  1  1  1  1  1  1
CENTRE ASSIGNMENTS    1  1  1  1  1  1  1  1  1  1  1  1  1  1  1  1  1  1  1  1
CENTRE ASSIGNMENTS    1  1  1  1  1  1  1  1  1  1  1  1  1  1  1  1  1  1  1  1
CENTRE ASSIGNMENTS    1  1  1  1  1  1  1  1  1  1  1  1  1  1  1  1  1  1  1  1
CENTRE ASSIGNMENTS    1  1  1  1  1  1  1  1  1  1  1  1  1  1  1  1  1  1  1  1
CENTRE ASSIGNMENTS    1  1  1  1  1  1  1  1  1  1  1  1  1  1  1  1  1  1  1  1
CENTRE ASSIGNMENTS    1  1  1  1  1  1  1  1  1  1  1  1  1  1  1  1  1  1  1  1
CENTRE ASSIGNMENTS    1  1  1  1  1  1  1  1  1  1  1  1  1  1  1  1  1  1  1  2
CENTRE ASSIGNMENTS    2  2  2  2  2  2  2  2  2  2  2  2  2  2  2  2  2  2  2  2
CENTRE ASSIGNMENTS    2  2  2  2  2  2  2  2  2  2  2  2  2  2  2  2  2  2  2  2
CENTRE ASSIGNMENTS    2  2  2  2  2  2  2  2  2  2  2  2  2  2  2  2  2  2  2  2
CENTRE ASSIGNMENTS    2  2  2  2  2  2  2  2  2  2  2  2  2  2  2  2  2  2  2  2
CENTRE ASSIGNMENTS    2  2  2  2  2  2  2  2  2  2  2  2  2  2  2  2  2  2  2  2
CENTRE ASSIGNMENTS    2  2  2  2  2  2  2  3  3  3  3  3  3  3  3  3  3  3  3  3
CENTRE ASSIGNMENTS    3  3  3  3  3  3  3  3  3  3  3  3  3  3  3  3  3  3  3  3
CENTRE ASSIGNMENTS    3  3  3  3  3  3  3  3  3  3  3  3  3  3  3  3  3  3  3  3
CENTRE ASSIGNMENTS    3  3  3  3  3  3  3  3  3  3  3  3  3  3  3  3  3  3  3  3
CENTRE ASSIGNMENTS    3  3  3  3  3  3  3  3  3  3  3  3  3  3  3  3  3  3  3  3
CENTRE ASSIGNMENTS    3  3  3  3  3  3  3  3  3  3  3  3  3  3  3
TYPE ASSIGNMENTS      1  1  1  1  1  1  1  1  1  1  1  1  1  1  1  2  2  2  2  3
TYPE ASSIGNMENTS      3  3  3  4  4  4  4  2  3  4  2  3  4  2  3  4  2  3  4  2
TYPE ASSIGNMENTS      3  4  5  8  9  6 10  7  5  8  9  6 10  7  5  8  9  6 10  7
TYPE ASSIGNMENTS      5  8  9  6 10  7  5  8  9  6 10  7 11 14 15 17 20 18 12 16
TYPE ASSIGNMENTS     19 13 11 14 15 17 20 18 12 16 19 13 11 14 15 17 20 18 12 16
TYPE ASSIGNMENTS     19 13 11 14 15 17 20 18 12 16 19 13 21 24 25 30 33 31 26 34
TYPE ASSIGNMENTS     35 28 22 27 32 29 23 21 24 25 30 33 31 26 34 35 28 22 27 32
TYPE ASSIGNMENTS     29 23 21 24 25 30 33 31 26 34 35 28 22 27 32 29 23 56 55 54
TYPE ASSIGNMENTS     53 52 51 50 49 48 47 46 45 44 43 42 41 40 39 38 37 36 56 55
TYPE ASSIGNMENTS     54 53 52 51 50 49 48 47 46 45 44 43 42 41 40 39 38 37 36  1
TYPE ASSIGNMENTS      1  1  1  1  1  1  1  1  2  3  4  2  3  4  2  3  4  2  3  4
TYPE ASSIGNMENTS      2  3  4  5  8  9  6 10  7  5  8  9  6 10  7  5  8  9  6 10
TYPE ASSIGNMENTS      7  5  8  9  6 10  7 11 14 15 17 20 18 12 16 19 13 11 14 15
TYPE ASSIGNMENTS     17 20 18 12 16 19 13 11 14 15 17 20 18 12 16 19 13 21 24 25
TYPE ASSIGNMENTS     30 33 31 26 34 35 28 22 27 32 29 23 21 24 25 30 33 31 26 34
TYPE ASSIGNMENTS     35 28 22 27 32 29 23  1  1  1  1  1  1  1  1  1  2  3  4  2
TYPE ASSIGNMENTS      3  4  2  3  4  2  3  4  2  3  4  5  8  9  6 10  7  5  8  9
TYPE ASSIGNMENTS      6 10  7  5  8  9  6 10  7  5  8  9  6 10  7 11 14 15 17 20
TYPE ASSIGNMENTS     18 12 16 19 13 11 14 15 17 20 18 12 16 19 13 11 14 15 17 20
TYPE ASSIGNMENTS     18 12 16 19 13 21 24 25 30 33 31 26 34 35 28 22 27 32 29 23
TYPE ASSIGNMENTS     21 24 25 30 33 31 26 34 35 28 22 27 32 29 23
EXPONENTS  1.6420000E+05 2.4590000E+04 5.5920000E+03 1.5820000E+03 5.1610000E+02
EXPONENTS  1.8720000E+02 7.3930000E+01 3.1220000E+01 1.3810000E+01 6.2560000E+00
EXPONENTS  2.7760000E+00 1.1380000E+00 4.6000000E-01 1.8290000E-01 6.5500000E-02
EXPONENTS  1.9550000E+02 4.6160000E+01 1.4580000E+01 5.2960000E+00 1.9550000E+02
EXPONENTS  4.6160000E+01 1.4580000E+01 5.2960000E+00 1.9550000E+02 4.6160000E+01
EXPONENTS  1.4580000E+01 5.2960000E+00 2.0940000E+00 2.0940000E+00 2.0940000E+00
EXPONENTS  8.4710000E-01 8.4710000E-01 8.4710000E-01 3.3680000E-01 3.3680000E-01
EXPONENTS  3.3680000E-01 1.2850000E-01 1.2850000E-01 1.2850000E-01 4.4600000E-02
EXPONENTS  4.4600000E-02 4.4600000E-02 5.8790000E+00 5.8790000E+00 5.8790000E+00
EXPONENTS  5.8790000E+00 5.8790000E+00 5.8790000E+00 2.3070000E+00 2.3070000E+00
EXPONENTS  2.3070000E+00 2.3070000E+00 2.3070000E+00 2.3070000E+00 9.0500000E-01
EXPONENTS  9.0500000E-01 9.0500000E-01 9.0500000E-01 9.0500000E-01 9.0500000E-01
EXPONENTS  3.5500000E-01 3.5500000E-01 3.5500000E-01 3.5500000E-01 3.5500000E-01
EXPONENTS  3.5500000E-01 1.3100000E-01 1.3100000E-01 1.3100000E-01 1.3100000E-01
EXPONENTS  1.3100000E-01 1.3100000E-01 4.0160000E+00 4.0160000E+00 4.0160000E+00
EXPONENTS  4.0160000E+00 4.0160000E+00 4.0160000E+00 4.0160000E+00 4.0160000E+00
EXPONENTS  4.0160000E+00 4.0160000E+00 1.5540000E+00 1.5540000E+00 1.5540000E+00
EXPONENTS  1.5540000E+00 1.5540000E+00 1.5540000E+00 1.5540000E+00 1.5540000E+00
EXPONENTS  1.5540000E+00 1.5540000E+00 6.0100000E-01 6.0100000E-01 6.0100000E-01
EXPONENTS  6.0100000E-01 6.0100000E-01 6.0100000E-01 6.0100000E-01 6.0100000E-01
EXPONENTS  6.0100000E-01 6.0100000E-01 2.3700000E-01 2.3700000E-01 2.3700000E-01
EXPONENTS  2.3700000E-01 2.3700000E-01 2.3700000E-01 2.3700000E-01 2.3700000E-01
EXPONENTS  2.3700000E-01 2.3700000E-01 3.3500000E+00 3.3500000E+00 3.3500000E+00
EXPONENTS  3.3500000E+00 3.3500000E+00 3.3500000E+00 3.3500000E+00 3.3500000E+00
EXPONENTS  3.3500000E+00 3.3500000E+00 3.3500000E+00 3.3500000E+00 3.3500000E+00
EXPONENTS  3.3500000E+00 3.3500000E+00 1.1890000E+00 1.1890000E+00 1.1890000E+00
EXPONENTS  1.1890000E+00 1.1890000E+00 1.1890000E+00 1.1890000E+00 1.1890000E+00
EXPONENTS  1.1890000E+00 1.1890000E+00 1.1890000E+00 1.1890000E+00 1.1890000E+00
EXPONENTS  1.1890000E+00 1.1890000E+00 5.1700000E-01 5.1700000E-01 5.1700000E-01
EXPONENTS  5.1700000E-01 5.1700000E-01 5.1700000E-01 5.1700000E-01 5.1700000E-01
EXPONENTS  5.1700000E-01 5.1700000E-01 5.1700000E-01 5.1700000E-01 5.1700000E-01
EXPONENTS  5.1700000E-01 5.1700000E-01 2.3190000E+00 2.3190000E+00 2.3190000E+00
EXPONENTS  2.3190000E+00 2.3190000E+00 2.3190000E+00 2.3190000E+00 2.3190000E+00
EXPONENTS  2.3190000E+00 2.3190000E+00 2.3190000E+00 2.3190000E+00 2.3190000E+00
EXPONENTS  2.3190000E+00 2.3190000E+00 2.3190000E+00 2.3190000E+00 2.3190000E+00
EXPONENTS  2.3190000E+00 2.3190000E+00 2.3190000E+00 1.0240000E+00 1.0240000E+00
EXPONENTS  1.0240000E+00 1.0240000E+00 1.0240000E+00 1.0240000E+00 1.0240000E+00
EXPONENTS  1.0240000E+00 1.0240000E+00 1.0240000E+00 1.0240000E+00 1.0240000E+00
EXPONENTS  1.0240000E+00 1.0240000E+00 1.0240000E+00 1.0240000E+00 1.0240000E+00
EXPONENTS  1.0240000E+00 1.0240000E+00 1.0240000E+00 1.0240000E+00 4.0200000E+02
EXPONENTS  6.0240000E+01 1.3730000E+01 3.9050000E+00 1.2830000E+00 4.6550000E-01
EXPONENTS  1.8110000E-01 7.2790000E-02 2.0700000E-02 4.5160000E+00 4.5160000E+00
EXPONENTS  4.5160000E+00 1.7120000E+00 1.7120000E+00 1.7120000E+00 6.4900000E-01
EXPONENTS  6.4900000E-01 6.4900000E-01 2.4600000E-01 2.4600000E-01 2.4600000E-01
EXPONENTS  7.4400000E-02 7.4400000E-02 7.4400000E-02 2.9500000E+00 2.9500000E+00
EXPONENTS  2.9500000E+00 2.9500000E+00 2.9500000E+00 2.9500000E+00 1.2060000E+00
EXPONENTS  1.2060000E+00 1.2060000E+00 1.2060000E+00 1.2060000E+00 1.2060000E+00
EXPONENTS  4.9300000E-01 4.9300000E-01 4.9300000E-01 4.9300000E-01 4.9300000E-01
EXPONENTS  4.9300000E-01 1.5600000E-01 1.5600000E-01 1.5600000E-01 1.5600000E-01
EXPONENTS  1.5600000E-01 1.5600000E-01 2.5060000E+00 2.5060000E+00 2.5060000E+00
EXPONENTS  2.5060000E+00 2.5060000E+00 2.5060000E+00 2.5060000E+00 2.5060000E+00
EXPONENTS  2.5060000E+00 2.5060000E+00 8.7500000E-01 8.7500000E-01 8.7500000E-01
EXPONENTS  8.7500000E-01 8.7500000E-01 8.7500000E-01 8.7500000E-01 8.7500000E-01
EXPONENTS  8.7500000E-01 8.7500000E-01 2.7400000E-01 2.7400000E-01 2.7400000E-01
EXPONENTS  2.7400000E-01 2.7400000E-01 2.7400000E-01 2.7400000E-01 2.7400000E-01
EXPONENTS  2.7400000E-01 2.7400000E-01 2.3580000E+00 2.3580000E+00 2.3580000E+00
EXPONENTS  2.3580000E+00 2.3580000E+00 2.3580000E+00 2.3580000E+00 2.3580000E+00
EXPONENTS  2.3580000E+00 2.3580000E+00 2.3580000E+00 2.3580000E+00 2.3580000E+00
EXPONENTS  2.3580000E+00 2.3580000E+00 5.4300000E-01 5.4300000E-01 5.4300000E-01
EXPONENTS  5.4300000E-01 5.4300000E-01 5.4300000E-01 5.4300000E-01 5.4300000E-01
EXPONENTS  5.4300000E-01 5.4300000E-01 5.4300000E-01 5.4300000E-01 5.4300000E-01
EXPONENTS  5.4300000E-01 5.4300000E-01 4.0200000E+02 6.0240000E+01 1.3730000E+01
EXPONENTS  3.9050000E+00 1.2830000E+00 4.6550000E-01 1.8110000E-01 7.2790000E-02
EXPONENTS  2.0700000E-02 4.5160000E+00 4.5160000E+00 4.5160000E+00 1.7120000E+00
EXPONENTS  1.7120000E+00 1.7120000E+00 6.4900000E-01 6.4900000E-01 6.4900000E-01
EXPONENTS  2.4600000E-01 2.4600000E-01 2.4600000E-01 7.4400000E-02 7.4400000E-02
EXPONENTS  7.4400000E-02 2.9500000E+00 2.9500000E+00 2.9500000E+00 2.9500000E+00
EXPONENTS  2.9500000E+00 2.9500000E+00 1.2060000E+00 1.2060000E+00 1.2060000E+00
EXPONENTS  1.2060000E+00 1.2060000E+00 1.2060000E+00 4.9300000E-01 4.9300000E-01
EXPONENTS  4.9300000E-01 4.9300000E-01 4.9300000E-01 4.9300000E-01 1.5600000E-01
EXPONENTS  1.5600000E-01 1.5600000E-01 1.5600000E-01 1.5600000E-01 1.5600000E-01
EXPONENTS  2.5060000E+00 2.5060000E+00 2.5060000E+00 2.5060000E+00 2.5060000E+00
EXPONENTS  2.5060000E+00 2.5060000E+00 2.5060000E+00 2.5060000E+00 2.5060000E+00
EXPONENTS  8.7500000E-01 8.7500000E-01 8.7500000E-01 8.7500000E-01 8.7500000E-01
EXPONENTS  8.7500000E-01 8.7500000E-01 8.7500000E-01 8.7500000E-01 8.7500000E-01
EXPONENTS  2.7400000E-01 2.7400000E-01 2.7400000E-01 2.7400000E-01 2.7400000E-01
EXPONENTS  2.7400000E-01 2.7400000E-01 2.7400000E-01 2.7400000E-01 2.7400000E-01
EXPONENTS  2.3580000E+00 2.3580000E+00 2.3580000E+00 2.3580000E+00 2.3580000E+00
EXPONENTS  2.3580000E+00 2.3580000E+00 2.3580000E+00 2.3580000E+00 2.3580000E+00
EXPONENTS  2.3580000E+00 2.3580000E+00 2.3580000E+00 2.3580000E+00 2.3580000E+00
EXPONENTS  5.4300000E-01 5.4300000E-01 5.4300000E-01 5.4300000E-01 5.4300000E-01
EXPONENTS  5.4300000E-01 5.4300000E-01 5.4300000E-01 5.4300000E-01 5.4300000E-01
EXPONENTS  5.4300000E-01 5.4300000E-01 5.4300000E-01 5.4300000E-01 5.4300000E-01
MO  1                     OCC NO =   2.00000000 ORB. ENERGY = -20.56413235
  1.51138905E-01  2.86882477E-01  4.95867736E-01  8.08373453E-01  1.24298935E+00
  1.77029786E+00  2.24328666E+00  2.36867426E+00  1.84969479E+00  7.85945481E-01
  9.85055796E-02 -3.28188532E-04  1.76369372E-03  8.94310416E-04  7.45421408E-05
  0.00000000E+00  0.00000000E+00  0.00000000E+00  0.00000000E+00  0.00000000E+00
  0.00000000E+00  0.00000000E+00  0.00000000E+00 -1.02019468E-02 -1.35134443E-02
 -1.51408551E-02 -1.40982221E-02  0.00000000E+00  0.00000000E+00  1.86335215E-03
  0.00000000E+00  0.00000000E+00 -1.04752866E-03  0.00000000E+00  0.00000000E+00
 -8.90405678E-04  0.00000000E+00  0.00000000E+00 -7.79170788E-05  0.00000000E+00
  0.00000000E+00 -6.40729523E-07  4.59204865E-03  0.00000000E+00  0.00000000E+00
 -5.65174391E-03  0.00000000E+00  1.05969527E-03 -1.33124044E-03  0.00000000E+00
  0.00000000E+00  1.85025316E-03  0.00000000E+00 -5.19012720E-04  6.81693505E-05
  0.00000000E+00  0.00000000E+00 -5.08133303E-04  0.00000000E+00  4.39963952E-04
  1.53676690E-04  0.00000000E+00  0.00000000E+00 -1.99180371E-04  0.00000000E+00
  4.55036809E-05  6.15023754E-06  0.00000000E+00  0.00000000E+00 -6.03840047E-06
  0.00000000E+00 -1.11837068E-07  0.00000000E+00  0.00000000E+00 -6.52689750E-04
  0.00000000E+00  0.00000000E+00  0.00000000E+00  0.00000000E+00 -1.84534476E-04
  0.00000000E+00  2.79074742E-04  0.00000000E+00  0.00000000E+00 -1.02100896E-03
  0.00000000E+00  0.00000000E+00  0.00000000E+00  0.00000000E+00  7.43489226E-04
  0.00000000E+00  9.25065779E-05  0.00000000E+00  0.00000000E+00 -4.91035660E-04
  0.00000000E+00  0.00000000E+00  0.00000000E+00  0.00000000E+00  2.71777231E-04
  0.00000000E+00  7.30861428E-05  0.00000000E+00  0.00000000E+00 -1.37648643E-05
  0.00000000E+00  0.00000000E+00  0.00000000E+00  0.00000000E+00  7.66871699E-06
  0.00000000E+00  2.03204911E-06 -2.37402612E-05  0.00000000E+00  0.00000000E+00
 -7.14724973E-04  0.00000000E+00  8.57166540E-04  0.00000000E+00  0.00000000E+00
  0.00000000E+00  0.00000000E+00  1.75073510E-04  0.00000000E+00 -3.35716086E-04
  0.00000000E+00 -8.69084089E-05 -1.76342186E-04  0.00000000E+00  0.00000000E+00
 -1.45736193E-04  0.00000000E+00  1.20378931E-03  0.00000000E+00  0.00000000E+00
  0.00000000E+00  0.00000000E+00  7.30855741E-05  0.00000000E+00 -2.92777252E-04
  0.00000000E+00 -1.51835343E-04 -2.03745332E-06  0.00000000E+00  0.00000000E+00
 -2.83339736E-05  0.00000000E+00  4.05586936E-05  0.00000000E+00  0.00000000E+00
  0.00000000E+00  0.00000000E+00  6.78979078E-06  0.00000000E+00 -1.24047710E-05
  0.00000000E+00 -4.69232042E-06  0.00000000E+00  0.00000000E+00  5.41398367E-04
  0.00000000E+00  0.00000000E+00  0.00000000E+00  0.00000000E+00  2.07460246E-03
  0.00000000E+00 -1.77433089E-03  0.00000000E+00  0.00000000E+00  0.00000000E+00
  0.00000000E+00  0.00000000E+00  0.00000000E+00 -4.21484630E-04  0.00000000E+00
  1.51435106E-04  0.00000000E+00  1.62289578E-04  0.00000000E+00  0.00000000E+00
  4.53290046E-05  0.00000000E+00  0.00000000E+00  0.00000000E+00  0.00000000E+00
  1.13850903E-04  0.00000000E+00 -1.28608310E-04  0.00000000E+00  0.00000000E+00
  0.00000000E+00  0.00000000E+00  0.00000000E+00  0.00000000E+00 -1.93886917E-05
  0.00000000E+00  8.27082348E-07  0.00000000E+00  1.27781228E-05  2.04917047E-05
  3.82979889E-05  6.53603014E-05  1.01989067E-04 -1.37915638E-04 -8.67754722E-04
 -3.42367350E-04 -3.64358746E-05 -5.67948900E-07 -1.91125183E-04  0.00000000E+00
  6.76070055E-05  2.79108529E-04  0.00000000E+00 -1.60118722E-04  5.43587991E-04
  0.00000000E+00 -2.32233876E-04  1.31851471E-04  0.00000000E+00 -9.29151908E-05
  4.22709328E-06  0.00000000E+00 -3.38455060E-06 -3.45983043E-05  0.00000000E+00
  3.05311932E-04  1.20005689E-04  0.00000000E+00 -8.54073844E-05 -2.25302634E-04
  0.00000000E+00  3.92562112E-05  1.79035680E-05  0.00000000E+00  2.07399066E-04
 -5.03049668E-05  0.00000000E+00 -1.30733697E-05  1.12313842E-05  0.00000000E+00
  3.90735827E-05 -1.20458667E-06  0.00000000E+00 -1.36365065E-06  6.29986801E-07
  0.00000000E+00  5.74599871E-07  1.41659087E-04  0.00000000E+00 -2.01229462E-04
 -8.67126880E-05  0.00000000E+00 -3.38264574E-04  0.00000000E+00 -6.39045207E-05
  0.00000000E+00  8.83779942E-05  5.44401775E-05  0.00000000E+00  5.61361777E-05
  7.68010817E-05  0.00000000E+00 -2.40121614E-04  0.00000000E+00 -1.20780800E-04
  0.00000000E+00  2.15482075E-05  2.08921409E-06  0.00000000E+00  5.08713782E-06
  1.89624249E-06  0.00000000E+00 -8.16388475E-06  0.00000000E+00 -3.13628740E-06
  0.00000000E+00 -6.50283472E-07 -1.05193697E-04  0.00000000E+00 -1.17725101E-05
 -2.75534019E-04  0.00000000E+00  9.06696201E-04  0.00000000E+00  9.62997838E-04
  0.00000000E+00 -3.09226769E-04  9.12526580E-05  0.00000000E+00 -2.71981929E-04
  0.00000000E+00 -1.05785712E-04 -2.55082951E-06  0.00000000E+00  6.97610614E-06
 -7.01022645E-06  0.00000000E+00  2.23152035E-05  0.00000000E+00  2.38877101E-05
  0.00000000E+00 -1.49386762E-05  3.06153571E-06  0.00000000E+00 -1.13589878E-05
  0.00000000E+00 -1.82603595E-06  2.04917047E-05  3.82979889E-05  6.53603014E-05
  1.01989067E-04 -1.37915638E-04 -8.67754722E-04 -3.42367350E-04 -3.64358746E-05
 -5.67948900E-07  1.91125183E-04  0.00000000E+00  6.76070055E-05 -2.79108529E-04
  0.00000000E+00 -1.60118722E-04 -5.43587991E-04  0.00000000E+00 -2.32233876E-04
 -1.31851471E-04  0.00000000E+00 -9.29151908E-05 -4.22709328E-06  0.00000000E+00
 -3.38455060E-06 -3.45983043E-05  0.00000000E+00 -3.05311932E-04  1.20005689E-04
  0.00000000E+00 -8.54073844E-05 -2.25302634E-04  0.00000000E+00 -3.92562112E-05
  1.79035680E-05  0.00000000E+00  2.07399066E-04 -5.03049668E-05  0.00000000E+00
  1.30733697E-05  1.12313842E-05  0.00000000E+00  3.90735827E-05 -1.20458667E-06
  0.00000000E+00  1.36365065E-06  6.29986801E-07  0.00000000E+00  5.74599871E-07
 -1.41659087E-04  0.00000000E+00 -2.01229462E-04  8.67126880E-05  0.00000000E+00
  3.38264574E-04  0.00000000E+00 -6.39045207E-05  0.00000000E+00  8.83779942E-05
 -5.44401775E-05  0.00000000E+00  5.61361777E-05 -7.68010817E-05  0.00000000E+00
  2.40121614E-04  0.00000000E+00 -1.20780800E-04  0.00000000E+00  2.15482075E-05
 -2.08921409E-06  0.00000000E+00  5.08713782E-06 -1.89624249E-06  0.00000000E+00
  8.16388475E-06  0.00000000E+00 -3.13628740E-06  0.00000000E+00 -6.50283472E-07
 -1.05193697E-04  0.00000000E+00  1.17725101E-05 -2.75534019E-04  0.00000000E+00
  9.06696201E-04  0.00000000E+00 -9.62997838E-04  0.00000000E+00  3.09226769E-04
  9.12526580E-05  0.00000000E+00 -2.71981929E-04  0.00000000E+00 -1.05785712E-04
 -2.55082951E-06  0.00000000E+00 -6.97610614E-06 -7.01022645E-06  0.00000000E+00
  2.23152035E-05  0.00000000E+00 -2.38877101E-05  0.00000000E+00  1.49386762E-05
  3.06153571E-06  0.00000000E+00 -1.13589878E-05  0.00000000E+00 -1.82603595E-06
MO  2                     OCC NO =   2.00000000 ORB. ENERGY =  -1.35239401
 -3.13705118E-02 -5.79347233E-02 -1.01175289E-01 -1.65813649E-01 -2.56010378E-01
 -3.73371395E-01 -4.91269185E-01 -5.75039107E-01 -5.48996002E-01 -3.71231485E-01
  1.18064024E-02  2.52121531E-01  1.77490795E-01  4.22127212E-02  2.85747332E-03
  0.00000000E+00  0.00000000E+00  0.00000000E+00  0.00000000E+00  0.00000000E+00
  0.00000000E+00  0.00000000E+00  0.00000000E+00 -1.09434739E-01 -1.44956672E-01
 -1.62413661E-01 -1.51229495E-01  0.00000000E+00  0.00000000E+00 -1.01536774E-01
  0.00000000E+00  0.00000000E+00 -5.62086384E-02  0.00000000E+00  0.00000000E+00
 -1.91416793E-02  0.00000000E+00  0.00000000E+00 -2.60390809E-03  0.00000000E+00
  0.00000000E+00 -5.56626078E-05  4.41232276E-03  0.00000000E+00  0.00000000E+00
 -9.13808910E-03  0.00000000E+00  4.72576634E-03  1.04599779E-02  0.00000000E+00
  0.00000000E+00 -1.36382645E-02  0.00000000E+00  3.17828655E-03  8.96581376E-03
  0.00000000E+00  0.00000000E+00 -1.29528012E-02  0.00000000E+00  3.98698745E-03
  2.50928331E-03  0.00000000E+00  0.00000000E+00 -3.28088910E-03  0.00000000E+00
  7.71605794E-04  1.62531616E-04  0.00000000E+00  0.00000000E+00 -2.04873935E-04
  0.00000000E+00  4.23423194E-05  0.00000000E+00  0.00000000E+00 -1.38194579E-02
  0.00000000E+00  0.00000000E+00  0.00000000E+00  0.00000000E+00  6.42731608E-03
  0.00000000E+00  2.46404727E-03  0.00000000E+00  0.00000000E+00 -2.59337222E-02
  0.00000000E+00  0.00000000E+00  0.00000000E+00  0.00000000E+00  1.45953847E-02
  0.00000000E+00  3.77944581E-03  0.00000000E+00  0.00000000E+00 -9.40610515E-03
  0.00000000E+00  0.00000000E+00  0.00000000E+00  0.00000000E+00  4.51910038E-03
  0.00000000E+00  1.62900159E-03  0.00000000E+00  0.00000000E+00 -5.24624518E-04
  0.00000000E+00  0.00000000E+00  0.00000000E+00  0.00000000E+00  2.39832017E-04
  0.00000000E+00  9.49308337E-05 -1.37755481E-03  0.00000000E+00  0.00000000E+00
 -1.34553204E-02  0.00000000E+00  2.17206492E-02  0.00000000E+00  0.00000000E+00
  0.00000000E+00  0.00000000E+00  3.21765992E-03  0.00000000E+00 -5.85063913E-03
  0.00000000E+00 -2.64500168E-03 -1.38607496E-03  0.00000000E+00  0.00000000E+00
 -4.38786304E-03  0.00000000E+00  1.27043128E-02  0.00000000E+00  0.00000000E+00
  0.00000000E+00  0.00000000E+00  1.23447016E-03  0.00000000E+00 -3.01895791E-03
  0.00000000E+00 -1.61422582E-03 -1.91875016E-04  0.00000000E+00  0.00000000E+00
 -5.25886785E-04  0.00000000E+00  1.67713688E-03  0.00000000E+00  0.00000000E+00
  0.00000000E+00  0.00000000E+00  1.41091016E-04  0.00000000E+00 -3.20659314E-04
  0.00000000E+00 -2.26079594E-04  0.00000000E+00  0.00000000E+00 -2.40581359E-04
  0.00000000E+00  0.00000000E+00  0.00000000E+00  0.00000000E+00  2.41602710E-02
  0.00000000E+00 -7.57226095E-03  0.00000000E+00  0.00000000E+00  0.00000000E+00
  0.00000000E+00  0.00000000E+00  0.00000000E+00 -4.00229386E-03  0.00000000E+00
 -4.88359402E-05  0.00000000E+00  7.62109689E-04  0.00000000E+00  0.00000000E+00
  4.02625243E-04  0.00000000E+00  0.00000000E+00  0.00000000E+00  0.00000000E+00
  2.52909576E-03  0.00000000E+00 -1.64828240E-03  0.00000000E+00  0.00000000E+00
  0.00000000E+00  0.00000000E+00  0.00000000E+00  0.00000000E+00 -4.14157655E-04
  0.00000000E+00 -1.47166103E-05  0.00000000E+00  1.66299902E-04  7.18498833E-03
  1.34283900E-02  2.29172248E-02  3.57603365E-02  4.07314695E-02  2.10311318E-02
 -5.89201335E-04 -1.14753029E-03 -1.20385210E-05 -1.39857366E-02  0.00000000E+00
  9.46798505E-03 -1.19740974E-02  0.00000000E+00  8.30473708E-03 -6.20717428E-03
  0.00000000E+00  4.38685362E-03 -8.07016719E-04  0.00000000E+00  5.01940164E-04
  2.70279754E-05  0.00000000E+00 -1.86480422E-05  3.54790160E-03  0.00000000E+00
 -1.00917284E-02 -3.37792945E-03  0.00000000E+00 -1.69972143E-04  1.47608852E-03
  0.00000000E+00 -4.59614142E-03 -2.09771790E-03  0.00000000E+00  6.21629382E-04
  7.34592742E-04  0.00000000E+00 -2.09603059E-03 -1.00172019E-03  0.00000000E+00
  2.67127450E-04  8.13380596E-05  0.00000000E+00 -2.24167536E-04 -8.93313838E-05
  0.00000000E+00  7.99332426E-06 -6.75169328E-05  0.00000000E+00  3.60204001E-03
  2.52070630E-03  0.00000000E+00 -2.31815550E-03  0.00000000E+00 -1.57165095E-03
  0.00000000E+00 -6.76796351E-04 -1.03838316E-04  0.00000000E+00  1.21853559E-03
  1.41865292E-03  0.00000000E+00 -1.10713797E-03  0.00000000E+00 -1.20529430E-03
  0.00000000E+00 -4.41376527E-06 -1.33396813E-05  0.00000000E+00  8.68849393E-05
  8.94512312E-05  0.00000000E+00 -4.94321874E-05  0.00000000E+00 -6.16455803E-05
  0.00000000E+00 -8.41311967E-06 -7.59512094E-05  0.00000000E+00 -1.44483448E-03
 -2.97786987E-03  0.00000000E+00  3.43357713E-03  0.00000000E+00  4.99251967E-03
  0.00000000E+00 -2.19338747E-04  5.75560828E-04  0.00000000E+00 -4.75495097E-04
  0.00000000E+00 -4.93013672E-04  8.36194822E-06  0.00000000E+00  1.83368338E-05
 -4.15275375E-05  0.00000000E+00 -8.64415180E-06  0.00000000E+00  1.15477127E-04
  0.00000000E+00 -5.68292095E-05  1.26035650E-05  0.00000000E+00 -3.40938522E-05
  0.00000000E+00  7.12300067E-06  7.18498833E-03  1.34283900E-02  2.29172248E-02
  3.57603365E-02  4.07314695E-02  2.10311318E-02 -5.89201335E-04 -1.14753029E-03
 -1.20385210E-05  1.39857366E-02  0.00000000E+00  9.46798505E-03  1.19740974E-02
  0.00000000E+00  8.30473708E-03  6.20717428E-03  0.00000000E+00  4.38685362E-03
  8.07016719E-04  0.00000000E+00  5.01940164E-04 -2.70279754E-05  0.00000000E+00
 -1.86480422E-05  3.54790160E-03  0.00000000E+00  1.00917284E-02 -3.37792945E-03
  0.00000000E+00 -1.69972143E-04  1.47608852E-03  0.00000000E+00  4.59614142E-03
 -2.09771790E-03  0.00000000E+00  6.21629382E-04  7.34592742E-04  0.00000000E+00
  2.09603059E-03 -1.00172019E-03  0.00000000E+00  2.67127450E-04  8.13380596E-05
  0.00000000E+00  2.24167536E-04 -8.93313838E-05  0.00000000E+00  7.99332426E-06
  6.75169328E-05  0.00000000E+00  3.60204001E-03 -2.52070630E-03  0.00000000E+00
  2.31815550E-03  0.00000000E+00 -1.57165095E-03  0.00000000E+00 -6.76796351E-04
  1.03838316E-04  0.00000000E+00  1.21853559E-03 -1.41865292E-03  0.00000000E+00
  1.10713797E-03  0.00000000E+00 -1.20529430E-03  0.00000000E+00 -4.41376527E-06
  1.33396813E-05  0.00000000E+00  8.68849393E-05 -8.94512312E-05  0.00000000E+00
  4.94321874E-05  0.00000000E+00 -6.16455803E-05  0.00000000E+00 -8.41311967E-06
 -7.59512094E-05  0.00000000E+00  1.44483448E-03 -2.97786987E-03  0.00000000E+00
  3.43357713E-03  0.00000000E+00 -4.99251967E-03  0.00000000E+00  2.19338747E-04
  5.75560828E-04  0.00000000E+00 -4.75495097E-04  0.00000000E+00 -4.93013672E-04
  8.36194822E-06  0.00000000E+00 -1.83368338E-05 -4.15275375E-05  0.00000000E+00
 -8.64415180E-06  0.00000000E+00 -1.15477127E-04  0.00000000E+00  5.68292095E-05
  1.26035650E-05  0.00000000E+00 -3.40938522E-05  0.00000000E+00  7.12300067E-06
MO  3                     OCC NO =   2.00000000 ORB. ENERGY =  -0.71742763
  0.00000000E+00  0.00000000E+00  0.00000000E+00  0.00000000E+00  0.00000000E+00
  0.00000000E+00  0.00000000E+00  0.00000000E+00  0.00000000E+00  0.00000000E+00
  0.00000000E+00  0.00000000E+00  0.00000000E+00  0.00000000E+00  0.00000000E+00
  7.05375152E-01  9.34336168E-01  1.04685735E+00  9.74768423E-01  0.00000000E+00
  0.00000000E+00  0.00000000E+00  0.00000000E+00  0.00000000E+00  0.00000000E+00
  0.00000000E+00  0.00000000E+00  6.59143903E-01  0.00000000E+00  0.00000000E+00
  3.23911054E-01  0.00000000E+00  0.00000000E+00  9.40663704E-02  0.00000000E+00
  0.00000000E+00  8.60332936E-03  0.00000000E+00  0.00000000E+00  1.70089639E-04
  0.00000000E+00  0.00000000E+00  0.00000000E+00  0.00000000E+00 -1.15747663E-01
  0.00000000E+00  0.00000000E+00  0.00000000E+00  0.00000000E+00  0.00000000E+00
 -9.28656444E-02  0.00000000E+00  0.00000000E+00  0.00000000E+00  0.00000000E+00
  0.00000000E+00 -7.13250319E-02  0.00000000E+00  0.00000000E+00  0.00000000E+00
  0.00000000E+00  0.00000000E+00 -1.61343412E-02  0.00000000E+00  0.00000000E+00
  0.00000000E+00  0.00000000E+00  0.00000000E+00 -4.90831352E-04  0.00000000E+00
  0.00000000E+00  0.00000000E+00  6.64317571E-03  0.00000000E+00  0.00000000E+00
 -2.83006231E-02  0.00000000E+00  8.37109597E-03  0.00000000E+00  0.00000000E+00
  0.00000000E+00  0.00000000E+00  6.78683605E-03  0.00000000E+00  0.00000000E+00
 -3.31021537E-02  0.00000000E+00  1.27416456E-02  0.00000000E+00  0.00000000E+00
  0.00000000E+00  0.00000000E+00  1.39522166E-03  0.00000000E+00  0.00000000E+00
 -8.48997091E-03  0.00000000E+00  4.30430593E-03  0.00000000E+00  0.00000000E+00
  0.00000000E+00  0.00000000E+00  6.26884022E-06  0.00000000E+00  0.00000000E+00
 -2.58660865E-04  0.00000000E+00  2.39854344E-04  0.00000000E+00  0.00000000E+00
  0.00000000E+00  0.00000000E+00  0.00000000E+00  0.00000000E+00 -1.65041348E-02
  0.00000000E+00  0.00000000E+00  0.00000000E+00  0.00000000E+00  3.34355247E-02
  0.00000000E+00  5.35895992E-03  0.00000000E+00  0.00000000E+00  0.00000000E+00
  0.00000000E+00  0.00000000E+00  0.00000000E+00  0.00000000E+00 -1.23350513E-02
  0.00000000E+00  0.00000000E+00  0.00000000E+00  0.00000000E+00  1.76074236E-02
  0.00000000E+00  6.46591008E-03  0.00000000E+00  0.00000000E+00  0.00000000E+00
  0.00000000E+00  0.00000000E+00  0.00000000E+00  0.00000000E+00 -9.66941357E-04
  0.00000000E+00  0.00000000E+00  0.00000000E+00  0.00000000E+00  1.67198342E-03
  0.00000000E+00  4.09613550E-04  0.00000000E+00  0.00000000E+00  0.00000000E+00
  0.00000000E+00  0.00000000E+00 -1.30380717E-03  0.00000000E+00  0.00000000E+00
 -7.56798687E-03  0.00000000E+00  2.06060586E-02  0.00000000E+00  0.00000000E+00
  0.00000000E+00  0.00000000E+00  5.79455790E-03  0.00000000E+00 -1.20633868E-02
  0.00000000E+00 -8.29246483E-03  0.00000000E+00  0.00000000E+00  0.00000000E+00
  0.00000000E+00  0.00000000E+00  0.00000000E+00 -3.20006583E-04  0.00000000E+00
  0.00000000E+00 -1.23611118E-03  0.00000000E+00  4.43617701E-03  0.00000000E+00
  0.00000000E+00  0.00000000E+00  0.00000000E+00  9.44376243E-04  0.00000000E+00
 -1.95792392E-03  0.00000000E+00 -1.89176785E-03  0.00000000E+00  0.00000000E+00
  0.00000000E+00  0.00000000E+00  0.00000000E+00  0.00000000E+00  1.10952664E-02
  2.07365076E-02  3.53894402E-02  5.52221442E-02  6.88781790E-02  4.76466334E-02
  1.66208348E-02 -2.08048422E-03 -9.60620605E-05 -1.03437263E-02  0.00000000E+00
  1.37382320E-02 -7.18327288E-03  0.00000000E+00  1.19810138E-02 -2.64978516E-03
  0.00000000E+00  6.68168966E-03  9.02071135E-04  0.00000000E+00  9.68732119E-04
  4.45763958E-04  0.00000000E+00 -2.40961768E-04  1.57384558E-03  0.00000000E+00
 -1.60806583E-02 -4.84301984E-03  0.00000000E+00  3.26917426E-03 -6.66336542E-04
  0.00000000E+00 -1.76255499E-03 -6.74323213E-04  0.00000000E+00  1.34065976E-03
 -2.84205860E-05  0.00000000E+00 -1.69629928E-03 -4.91596780E-04  0.00000000E+00
  5.20017366E-04 -7.68550512E-05  0.00000000E+00  6.77548121E-05  6.46668050E-05
  0.00000000E+00  1.21882462E-05  5.68080157E-04  0.00000000E+00  8.36691521E-03
  5.77229599E-03  0.00000000E+00 -7.47653646E-03  0.00000000E+00 -5.82553948E-03
  0.00000000E+00 -8.47125243E-04  3.74331395E-06  0.00000000E+00 -3.19871361E-05
  1.96780632E-04  0.00000000E+00 -2.08010573E-04  0.00000000E+00 -3.53434297E-04
  0.00000000E+00  1.28473811E-04 -2.01025157E-06  0.00000000E+00  8.39023599E-05
  4.89458321E-06  0.00000000E+00  1.13617149E-06  0.00000000E+00 -2.02653993E-05
  0.00000000E+00 -2.12123202E-05 -5.94759791E-04  0.00000000E+00 -2.54784019E-03
 -2.30691047E-03  0.00000000E+00  5.87546922E-03  0.00000000E+00  9.38073295E-03
  0.00000000E+00 -5.79070793E-04  9.26972953E-04  0.00000000E+00 -3.25492725E-03
  0.00000000E+00 -4.36756995E-04  3.28450765E-05  0.00000000E+00  1.61625379E-05
  3.27737264E-05  0.00000000E+00 -2.29844185E-04  0.00000000E+00 -1.36291757E-04
  0.00000000E+00  2.92680479E-05 -1.15130438E-05  0.00000000E+00  3.63045363E-05
  0.00000000E+00  3.22566081E-05 -1.10952664E-02 -2.07365076E-02 -3.53894402E-02
 -5.52221442E-02 -6.88781790E-02 -4.76466334E-02 -1.66208348E-02  2.08048422E-03
  9.60620605E-05 -1.03437263E-02  0.00000000E+00 -1.37382320E-02 -7.18327288E-03
  0.00000000E+00 -1.19810138E-02 -2.64978516E-03  0.00000000E+00 -6.68168966E-03
  9.02071135E-04  0.00000000E+00 -9.68732119E-04  4.45763958E-04  0.00000000E+00
  2.40961768E-04 -1.57384558E-03  0.00000000E+00 -1.60806583E-02  4.84301984E-03
  0.00000000E+00 -3.26917426E-03  6.66336542E-04  0.00000000E+00 -1.76255499E-03
  6.74323213E-04  0.00000000E+00 -1.34065976E-03  2.84205860E-05  0.00000000E+00
 -1.69629928E-03  4.91596780E-04  0.00000000E+00 -5.20017366E-04  7.68550512E-05
  0.00000000E+00  6.77548121E-05 -6.46668050E-05  0.00000000E+00 -1.21882462E-05
  5.68080157E-04  0.00000000E+00 -8.36691521E-03  5.77229599E-03  0.00000000E+00
 -7.47653646E-03  0.00000000E+00  5.82553948E-03  0.00000000E+00  8.47125243E-04