 Molden2AIM, Version 4.0.0 (06/02/2016)           Time: Sun Jun 24 01:51:23 2018
GAUSSIAN             10 MOL ORBITALS     98 PRIMITIVES        6 NUCLEI
  O    1    (CENTRE  1)  -2.85696072  0.22802913  0.00000000  CHARGE =  8.0
  H    2    (CENTRE  2)  -3.58622059 -1.42710202 -0.00000000  CHARGE =  1.0
  H    3    (CENTRE  3)  -1.06010469 -0.07076285 -0.00000000  CHARGE =  1.0
  O    4    (CENTRE  4)   2.62500988 -0.21564111 -0.00000000  CHARGE =  8.0
  H    5    (CENTRE  5)   3.25096601  0.69938039 -1.43347254  CHARGE =  1.0
  H    6    (CENTRE  6)   3.25096601  0.69938039  1.43347254  CHARGE =  1.0
CENTRE ASSIGNMENTS    1  1  1  1  1  1  1  1  1  1  1  1  1  1  1  1  1  1  1  1
CENTRE ASSIGNMENTS    1  1  1  1  1  1  1  1  1  1  1  1  1  1  1  2  2  2  2  2
CENTRE ASSIGNMENTS    2  2  3  3  3  3  3  3  3  4  4  4  4  4  4  4  4  4  4  4
CENTRE ASSIGNMENTS    4  4  4  4  4  4  4  4  4  4  4  4  4  4  4  4  4  4  4  4
CENTRE ASSIGNMENTS    4  4  4  4  5  5  5  5  5  5  5  6  6  6  6  6  6  6
TYPE ASSIGNMENTS      1  1  1  1  1  1  1  1  1  1  1  1  1  1  1  1  1  2  2  2
TYPE ASSIGNMENTS      3  3  3  4  4  4  2  3  4  5  6  7  8  9 10  1  1  1  1  2
TYPE ASSIGNMENTS      3  4  1  1  1  1  2  3  4  1  1  1  1  1  1  1  1  1  1  1
TYPE ASSIGNMENTS      1  1  1  1  1  1  2  2  2  3  3  3  4  4  4  2  3  4  5  6
TYPE ASSIGNMENTS      7  8  9 10  1  1  1  1  2  3  4  1  1  1  1  2  3  4
EXPONENTS  0.1172000D+05 0.1759000D+04 0.4008000D+03 0.1137000D+03 0.3703000D+02
EXPONENTS  0.1327000D+02 0.5025000D+01 0.1013000D+01 0.1172000D+05 0.1759000D+04
EXPONENTS  0.4008000D+03 0.1137000D+03 0.3703000D+02 0.1327000D+02 0.5025000D+01
EXPONENTS  0.1013000D+01 0.3023000D+00 0.1770000D+02 0.3854000D+01 0.1046000D+01
EXPONENTS  0.1770000D+02 0.3854000D+01 0.1046000D+01 0.1770000D+02 0.3854000D+01
EXPONENTS  0.1046000D+01 0.2753000D+00 0.2753000D+00 0.2753000D+00 0.1185000D+01
EXPONENTS  0.1185000D+01 0.1185000D+01 0.1185000D+01 0.1185000D+01 0.1185000D+01
EXPONENTS  0.1301000D+02 0.1962000D+01 0.4446000D+00 0.1220000D+00 0.7270000D+00
EXPONENTS  0.7270000D+00 0.7270000D+00 0.1301000D+02 0.1962000D+01 0.4446000D+00
EXPONENTS  0.1220000D+00 0.7270000D+00 0.7270000D+00 0.7270000D+00 0.1172000D+05
EXPONENTS  0.1759000D+04 0.4008000D+03 0.1137000D+03 0.3703000D+02 0.1327000D+02
EXPONENTS  0.5025000D+01 0.1013000D+01 0.1172000D+05 0.1759000D+04 0.4008000D+03
EXPONENTS  0.1137000D+03 0.3703000D+02 0.1327000D+02 0.5025000D+01 0.1013000D+01
EXPONENTS  0.3023000D+00 0.1770000D+02 0.3854000D+01 0.1046000D+01 0.1770000D+02
EXPONENTS  0.3854000D+01 0.1046000D+01 0.1770000D+02 0.3854000D+01 0.1046000D+01
EXPONENTS  0.2753000D+00 0.2753000D+00 0.2753000D+00 0.1185000D+01 0.1185000D+01
EXPONENTS  0.1185000D+01 0.1185000D+01 0.1185000D+01 0.1185000D+01 0.1301000D+02
EXPONENTS  0.1962000D+01 0.4446000D+00 0.1220000D+00 0.7270000D+00 0.7270000D+00
EXPONENTS  0.7270000D+00 0.1301000D+02 0.1962000D+01 0.4446000D+00 0.1220000D+00
EXPONENTS  0.7270000D+00 0.7270000D+00 0.7270000D+00
MO    1     MO 0.0        OCC NO =    2.0000000  ORB. ENERGY =    0.000000
  0.27630659D-04  0.51330311D-04  0.86150024D-04  0.12607205D-03  0.14680270D-03
  0.10778662D-03  0.31418222D-04  0.53925922D-06 -0.28854283D-04 -0.54922125D-04
 -0.89877313D-04 -0.14335682D-03 -0.17045239D-03 -0.18412475D-03 -0.62844235D-04
  0.90103926D-04 -0.64445325D-04  0.16478706D-03  0.13042667D-03  0.56781461D-04
  0.54891973D-05  0.43446234D-05  0.18914388D-05  0.00000000D+00  0.00000000D+00
  0.00000000D+00 -0.48595155D-04 -0.12297282D-04  0.00000000D+00 -0.21532656D-05
  0.71481506D-05 -0.49948851D-05 -0.28725780D-04  0.00000000D+00  0.00000000D+00
  0.21142325D-05  0.35862479D-05  0.40817725D-05 -0.24049802D-04  0.25475036D-05
 -0.13132975D-04  0.00000000D+00  0.52018591D-05  0.88236067D-05  0.10042796D-04
  0.59270131D-04  0.91853493D-04  0.22111170D-04  0.00000000D+00  0.57022913D+00
  0.10593319D+01  0.17779255D+01  0.26018184D+01  0.30296482D+01  0.22244518D+01
  0.64839514D+00  0.11128989D-01 -0.31209359D-03 -0.59404848D-03 -0.97213066D-03
 -0.15505755D-02 -0.18436466D-02 -0.19915295D-02 -0.67973558D-03  0.97458176D-03
 -0.80231620D-03  0.27631698D-02  0.21870105D-02  0.95211855D-03  0.46127165D-02
  0.36509010D-02  0.15894256D-02  0.00000000D+00  0.00000000D+00  0.00000000D+00
 -0.19531189D-04 -0.11143047D-03  0.00000000D+00 -0.20170179D-03 -0.54884856D-04
  0.25658664D-03  0.29389201D-03  0.00000000D+00  0.00000000D+00 -0.34672139D-04
 -0.58812305D-04 -0.66938609D-04  0.52211983D-04  0.22895179D-03  0.38190691D-03
 -0.54498951D-03 -0.34672139D-04 -0.58812305D-04 -0.66938609D-04  0.52211983D-04
  0.22895179D-03  0.38190691D-03  0.54498951D-03
MO    2     MO 0.0        OCC NO =    2.0000000  ORB. ENERGY =    1.000000
  0.57025778D+00  0.10593851D+01  0.17780148D+01  0.26019491D+01  0.30298004D+01
  0.22245635D+01  0.64842772D+00  0.11129549D-01 -0.33522202D-03 -0.63807185D-03
 -0.10441727D-02 -0.16654846D-02 -0.19802743D-02 -0.21391165D-02 -0.73010899D-03
  0.10468054D-02 -0.90975329D-03  0.25378550D-02  0.20086770D-02  0.87448075D-03
 -0.49049131D-02 -0.38821706D-02 -0.16901092D-02  0.00000000D+00  0.00000000D+00
  0.00000000D+00 -0.14679489D-03  0.11044161D-03  0.00000000D+00  0.13534590D-03
  0.10904668D-03 -0.24439259D-03  0.20475913D-03  0.00000000D+00  0.00000000D+00
 -0.34126995D-04 -0.57887608D-04 -0.65886144D-04  0.27162703D-04 -0.25727204D-03
 -0.68534102D-03  0.00000000D+00 -0.19070284D-04 -0.32347797D-04 -0.36817407D-04
  0.16084901D-03  0.62748114D-03 -0.11213390D-03  0.00000000D+00  0.47838358D-04
  0.88870764D-04  0.14915589D-03  0.21827492D-03  0.25416694D-03  0.18661642D-03
  0.54395956D-04  0.93364676D-06 -0.36591466D-04 -0.69649314D-04 -0.11397762D-03
 -0.18179749D-03 -0.21615865D-03 -0.23349721D-03 -0.79695713D-04  0.11426500D-03
 -0.60933779D-04 -0.34716566D-03 -0.27477680D-03 -0.11962452D-03 -0.29147175D-04
 -0.23069584D-04 -0.10043380D-04  0.00000000D+00  0.00000000D+00  0.00000000D+00
  0.13507454D-03  0.11870964D-04  0.00000000D+00 -0.36816806D-04  0.25459584D-04
  0.11357222D-04  0.88177216D-04  0.00000000D+00  0.00000000D+00  0.20561711D-05
  0.34877618D-05  0.39696782D-05 -0.22047193D-04 -0.62529802D-04  0.22581351D-04
 -0.36294697D-04  0.20561711D-05  0.34877618D-05  0.39696782D-05 -0.22047193D-04
 -0.62529802D-04  0.22581351D-04  0.36294697D-04
MO    3     MO 0.0        OCC NO =    2.0000000  ORB. ENERGY =    2.000000
 -0.24843208D-04 -0.46151979D-04 -0.77458992D-04 -0.11335358D-03 -0.13199287D-03
 -0.96912830D-04 -0.28248672D-04 -0.48485738D-06 -0.78948155D-02 -0.15027233D-01
 -0.24591316D-01 -0.39223835D-01 -0.46637450D-01 -0.50378342D-01 -0.17194800D-01
  0.24653320D-01  0.55591135D-02  0.18254102D-01  0.14447868D-01  0.62899026D-02
 -0.14372144D-01 -0.11375352D-01 -0.49522779D-02  0.00000000D+00  0.00000000D+00
  0.00000000D+00 -0.64680450D-03  0.20396651D-03  0.00000000D+00  0.20916233D-03
  0.14482600D-03 -0.35398833D-03 -0.66385175D-03  0.00000000D+00  0.00000000D+00
  0.20532354D-02  0.34827821D-02  0.39640104D-02 -0.31385467D-03  0.15267176D-02
  0.22393507D-02  0.00000000D+00  0.35643904D-02  0.60460651D-02  0.68814714D-02
  0.16415493D-02 -0.28732890D-02  0.88169580D-03  0.00000000D+00 -0.46173952D-02
 -0.85778746D-02 -0.14396642D-01 -0.21068064D-01 -0.24532389D-01 -0.18012361D-01
 -0.52503397D-02 -0.90116305D-04 -0.11179970D+00 -0.21280297D+00 -0.34824143D+00
 -0.55545480D+00 -0.66044014D+00 -0.71341549D+00 -0.24349823D+00  0.34911947D+00
  0.11026458D+00  0.13009401D+00  0.10296761D+00  0.44827112D-01  0.20953413D+00
  0.16584335D+00  0.72200170D-01  0.00000000D+00  0.00000000D+00  0.00000000D+00
 -0.26523234D-02 -0.28088817D-02  0.00000000D+00 -0.30375208D-02 -0.11297029D-02
  0.41672238D-02  0.89146303D-02  0.00000000D+00  0.00000000D+00  0.31068882D-01
  0.52700311D-01  0.59982100D-01  0.10532429D-02 -0.10944984D-01 -0.15999871D-01
  0.35150025D-01  0.31068882D-01  0.52700311D-01  0.59982100D-01  0.10532429D-02
 -0.10944984D-01 -0.15999871D-01 -0.35150025D-01
MO    4     MO 0.0        OCC NO =    2.0000000  ORB. ENERGY =    3.000000
 -0.50500924D-02 -0.93817093D-02 -0.15745755D-01 -0.23042357D-01 -0.26831325D-01
 -0.19700303D-01 -0.57423502D-02 -0.98561125D-04 -0.11123601D+00 -0.21173003D+00
 -0.34648561D+00 -0.55265422D+00 -0.65711023D+00 -0.70981848D+00 -0.24227052D+00
  0.34735923D+00  0.11036089D+00  0.11715564D+00  0.92727062D-01  0.40368876D-01
 -0.22318065D+00 -0.17664438D+00 -0.76902415D-01  0.00000000D+00  0.00000000D+00
  0.00000000D+00 -0.17059440D-02  0.35775876D-02  0.00000000D+00  0.35271030D-02
  0.32864420D-02 -0.68135449D-02  0.19710357D-02  0.00000000D+00  0.00000000D+00
  0.31806161D-01  0.53950915D-01  0.61405504D-01  0.17351124D-02  0.21770677D-01
  0.34097992D-01  0.00000000D+00  0.30394918D-01  0.51557107D-01  0.58680935D-01
  0.13187942D-02 -0.40872228D-01  0.63722059D-03  0.00000000D+00  0.37771064D-03
  0.70168447D-03  0.11776694D-02  0.17234028D-02  0.20067904D-02  0.14734412D-02
  0.42948655D-03  0.73716643D-05  0.87034633D-02  0.16566438D-01  0.27110148D-01
  0.43241443D-01  0.51414417D-01  0.55538480D-01  0.18956024D-01 -0.27178503D-01
 -0.87630217D-02 -0.29539413D-01 -0.23380035D-01 -0.10178536D-01 -0.18268098D-01
 -0.14458946D-01 -0.62947253D-02  0.00000000D+00  0.00000000D+00  0.00000000D+00
 -0.39225119D-03  0.27319723D-03  0.00000000D+00  0.55032476D-03  0.53380052D-06
 -0.55085856D-03 -0.12640954D-02  0.00000000D+00  0.00000000D+00 -0.27388336D-02
 -0.46457219D-02 -0.52876377D-02 -0.79001636D-04  0.55071133D-03  0.13634944D-02
 -0.30560220D-02 -0.27388336D-02 -0.46457219D-02 -0.52876377D-02 -0.79001636D-04
  0.55071133D-03  0.13634944D-02  0.30560220D-02
MO    5     MO 0.0        OCC NO =    2.0000000  ORB. ENERGY =    4.000000
  0.00000000D+00  0.00000000D+00  0.00000000D+00  0.00000000D+00  0.00000000D+00
  0.00000000D+00  0.00000000D+00  0.00000000D+00 -0.00000000D+00 -0.00000000D+00
 -0.00000000D+00 -0.00000000D+00 -0.00000000D+00 -0.00000000D+00 -0.00000000D+00
  0.00000000D+00  0.00000000D+00  0.00000000D+00  0.00000000D+00  0.00000000D+00
  0.00000000D+00  0.00000000D+00  0.00000000D+00  0.13427408D-01  0.10627607D-01
  0.46267456D-02  0.00000000D+00  0.00000000D+00  0.11014685D-02  0.00000000D+00
  0.00000000D+00  0.00000000D+00  0.00000000D+00  0.31709506D-03 -0.43806223D-03
  0.00000000D+00  0.00000000D+00  0.00000000D+00  0.00000000D+00  0.00000000D+00
  0.00000000D+00  0.53608763D-04  0.00000000D+00  0.00000000D+00  0.00000000D+00
  0.00000000D+00  0.00000000D+00  0.00000000D+00  0.16342887D-02  0.00000000D+00
  0.00000000D+00  0.00000000D+00  0.00000000D+00  0.00000000D+00  0.00000000D+00
  0.00000000D+00  0.00000000D+00 -0.00000000D+00 -0.00000000D+00 -0.00000000D+00
 -0.00000000D+00 -0.00000000D+00 -0.00000000D+00 -0.00000000D+00  0.00000000D+00
  0.00000000D+00  0.00000000D+00  0.00000000D+00  0.00000000D+00  0.00000000D+00
  0.00000000D+00  0.00000000D+00  0.16034029D+01  0.12690712D+01  0.55249217D+00
  0.00000000D+00  0.00000000D+00  0.64809745D-01  0.00000000D+00  0.00000000D+00
  0.00000000D+00  0.00000000D+00  0.53708375D-01  0.84680615D-01 -0.52962174D-01
 -0.89836612D-01 -0.10224965D+00 -0.11991188D-01  0.17974341D-01  0.25848689D-01
 -0.22749596D-01  0.52962174D-01  0.89836612D-01  0.10224965D+00  0.11991188D-01
 -0.17974341D-01 -0.25848689D-01 -0.22749596D-01
MO    6     MO 0.0        OCC NO =    2.0000000  ORB. ENERGY =    5.000000
  0.31162768D-03  0.57892016D-03  0.97162836D-03  0.14218821D-02  0.16556892D-02
  0.12156530D-02  0.35434506D-03  0.60819432D-05  0.11441308D-02  0.21777736D-02
  0.35638177D-02  0.56843887D-02  0.67587831D-02  0.73009199D-02  0.24919014D-02
 -0.35728034D-02 -0.32509990D-02  0.13506555D+01  0.10690251D+01  0.46540178D+00
  0.66990273D+00  0.53021870D+00  0.23083156D+00  0.00000000D+00  0.00000000D+00
  0.00000000D+00  0.54421536D-01  0.26197654D-01  0.00000000D+00  0.38667631D-01
 -0.38908997D-01  0.24136610D-03 -0.54101618D-01  0.00000000D+00  0.00000000D+00
 -0.50158269D-01 -0.85080514D-01 -0.96836390D-01 -0.13173746D-01 -0.30592219D-02
 -0.35712907D-01  0.00000000D+00  0.51061567D-01  0.86612724D-01  0.98580311D-01
  0.14055817D-01 -0.35065712D-01  0.15679785D-01  0.00000000D+00 -0.57238473D-03
 -0.10633364D-02 -0.17846465D-02 -0.26116538D-02 -0.30411009D-02 -0.22328607D-02
 -0.65084622D-03 -0.11171060D-04 -0.42649501D-02 -0.81180363D-02 -0.13284761D-01
 -0.21189564D-01 -0.25194559D-01 -0.27215470D-01 -0.92890029D-02  0.13318256D-01
  0.16939442D-01 -0.47780284D+00 -0.37817431D+00 -0.16463880D+00 -0.16297703D+00
 -0.12899406D+00 -0.56157771D-01  0.00000000D+00  0.00000000D+00  0.00000000D+00
 -0.27346522D-01 -0.64256376D-02  0.00000000D+00  0.16765905D-02 -0.16684405D-02
 -0.81500190D-05 -0.17806200D-01  0.00000000D+00  0.00000000D+00 -0.87916193D-02
 -0.14912705D-01 -0.16973246D-01 -0.14263101D-02 -0.34397208D-02  0.18696774D-02
 -0.87250013D-02 -0.87916193D-02 -0.14912705D-01 -0.16973246D-01 -0.14263101D-02
 -0.34397208D-02  0.18696774D-02  0.87250013D-02
MO    7     MO 0.0        OCC NO =    2.0000000  ORB. ENERGY =    6.000000
 -0.19605351D-02 -0.36421453D-02 -0.61127802D-02 -0.89454501D-02 -0.10416394D-01
 -0.76480059D-02 -0.22292818D-02 -0.38263170D-04 -0.91798739D-02 -0.17473253D-01
 -0.28594105D-01 -0.45608395D-01 -0.54228742D-01 -0.58578548D-01 -0.19993640D-01
  0.28666201D-01  0.31420833D-01  0.22924825D+00  0.18144680D+00  0.78993157D-01
  0.46377192D+00  0.36706903D+00  0.15980409D+00  0.00000000D+00  0.00000000D+00
  0.00000000D+00  0.11082609D-01  0.24989791D-01  0.00000000D+00  0.11141482D-01
 -0.16083056D-01  0.49415747D-02 -0.76906983D-02  0.00000000D+00  0.00000000D+00
 -0.19223492D-01 -0.32607676D-01 -0.37113194D-01 -0.33775432D-02 -0.54567238D-02
 -0.10492111D-01  0.00000000D+00  0.49097662D-02  0.83281468D-02  0.94788764D-02
 -0.57902005D-02 -0.66754627D-02  0.87217947D-02  0.00000000D+00  0.14200335D-02
  0.26380391D-02  0.44275426D-02  0.64792712D-02  0.75446897D-02  0.55395206D-02
  0.16146892D-02  0.27714364D-04  0.34854264D-01  0.66342670D-01  0.10856647D+00
  0.17316654D+00  0.20589639D+00  0.22241179D+00  0.75912110D-01 -0.10884020D+00
 -0.95806124D-01  0.93414254D+00  0.73936084D+00  0.32188193D+00  0.14038906D+01
  0.11111599D+01  0.48374526D+00  0.00000000D+00  0.00000000D+00  0.00000000D+00
  0.52425403D-01  0.81873830D-01  0.00000000D+00 -0.96270579D-02  0.19038341D-01
 -0.94112829D-02  0.53683158D-01  0.00000000D+00  0.00000000D+00  0.31768549D-01
  0.53887116D-01  0.61332889D-01  0.64162122D-02  0.27303137D-02  0.41291595D-02
  0.30174791D-01  0.31768549D-01  0.53887116D-01  0.61332889D-01  0.64162122D-02
  0.27303137D-02  0.41291595D-02 -0.30174791D-01
MO    8     MO 0.0        OCC NO =    2.0000000  ORB. ENERGY =    7.000000
 -0.10636103D-02 -0.19759010D-02 -0.33162455D-02 -0.48529978D-02 -0.56510002D-02
 -0.41491212D-02 -0.12094081D-02 -0.20758160D-04 -0.31792669D-01 -0.60515139D-01
 -0.99030001D-01 -0.15795561D+00 -0.18781047D+00 -0.20287516D+00 -0.69244000D-01
  0.99279691D-01  0.83678596D-01 -0.54348529D+00 -0.43016106D+00 -0.18727131D+00
  0.13096769D+01  0.10365911D+01  0.45128159D+00  0.00000000D+00  0.00000000D+00
  0.00000000D+00 -0.35464872D-01  0.76084767D-01  0.00000000D+00  0.38388903D-02
 -0.26070253D-01  0.22231363D-01  0.26952797D-01  0.00000000D+00  0.00000000D+00
 -0.32160364D-01 -0.54551729D-01 -0.62089334D-01 -0.67447684D-02 -0.23486676D-01
 -0.99127762D-02  0.00000000D+00 -0.22747777D-01 -0.38585712D-01 -0.43917237D-01
 -0.26212266D-02  0.16487521D-01  0.15425391D-01  0.00000000D+00  0.69269637D-03
  0.12868430D-02  0.21597678D-02  0.31606069D-02  0.36803211D-02  0.27021939D-02
  0.78764997D-03  0.13519145D-04 -0.96832119D-02 -0.18431322D-01 -0.30161937D-01
 -0.48109131D-01 -0.57202137D-01 -0.61790445D-01 -0.21089903D-01  0.30237986D-01
  0.20087952D-01  0.72421801D+00  0.57320850D+00  0.24954724D+00 -0.91089255D+00
 -0.72095880D+00 -0.31387057D+00  0.00000000D+00  0.00000000D+00  0.00000000D+00
  0.52371707D-01 -0.59081902D-01  0.00000000D+00  0.14773906D-01 -0.18694410D-01
  0.39205042D-02  0.38562599D-02  0.00000000D+00  0.00000000D+00 -0.59159810D-02
 -0.10034930D-01 -0.11421491D-01 -0.11184219D-02  0.11047172D-01 -0.10326442D-01
 -0.55792946D-02 -0.59159810D-02 -0.10034930D-01 -0.11421491D-01 -0.11184219D-02
  0.11047172D-01 -0.10326442D-01  0.55792946D-02
MO    9     MO 0.0        OCC NO =    2.0000000  ORB. ENERGY =    8.000000
 -0.42363446D-03 -0.78699854D-03 -0.13208559D-02 -0.19329421D-02 -0.22507853D-02
 -0.16525891D-02 -0.48170553D-03 -0.82679455D-05  0.17121254D-01  0.32589118D-01
  0.53330464D-01  0.85063578D-01  0.10114127D+00  0.10925403D+00  0.37289858D-01
 -0.53464929D-01 -0.41115461D-01  0.76619818D+00  0.60643522D+00  0.26401255D+00
 -0.76018892D+00 -0.60167897D+00 -0.26194191D+00  0.00000000D+00  0.00000000D+00
  0.00000000D+00  0.46111030D-01 -0.47570647D-01  0.00000000D+00  0.82865530D-02
  0.84160652D-02 -0.16702618D-01 -0.34002611D-01  0.00000000D+00  0.00000000D+00
  0.10238557D-01  0.17367061D-01  0.19766729D-01  0.30424430D-02  0.17680187D-01
 -0.14595208D-02  0.00000000D+00  0.24498629D-01  0.41555578D-01  0.47297460D-01
 -0.44878957D-02 -0.18900560D-01 -0.10038967D-01  0.00000000D+00  0.63469816D-03
  0.11790980D-02  0.19789344D-02  0.28959750D-02  0.33721745D-02  0.24759441D-02
  0.72170148D-03  0.12387212D-04  0.36667575D-02  0.69794183D-02  0.11421469D-01
  0.18217562D-01  0.21660826D-01  0.23398288D-01  0.79861478D-02 -0.11450267D-01
 -0.13167582D-01  0.14776323D+01  0.11695254D+01  0.50915477D+00 -0.82619521D+00
 -0.65392203D+00 -0.28468601D+00  0.00000000D+00  0.00000000D+00  0.00000000D+00
  0.97909554D-01 -0.59169392D-01  0.00000000D+00  0.24453616D-01 -0.23811982D-01
 -0.64163380D-03  0.26883664D-01  0.00000000D+00  0.00000000D+00  0.32931699D-02
  0.55860099D-02  0.63578487D-02  0.20941388D-02  0.20049002D-01 -0.13608186D-01
  0.44598904D-02  0.32931699D-02  0.55860099D-02  0.63578487D-02  0.20941388D-02
  0.20049002D-01 -0.13608186D-01 -0.44598904D-02
MO   10     MO 0.0        OCC NO =    2.0000000  ORB. ENERGY =    9.000000
  0.00000000D+00  0.00000000D+00  0.00000000D+00  0.00000000D+00  0.00000000D+00
  0.00000000D+00  0.00000000D+00  0.00000000D+00 -0.00000000D+00 -0.00000000D+00
 -0.00000000D+00 -0.00000000D+00 -0.00000000D+00 -0.00000000D+00 -0.00000000D+00
  0.00000000D+00  0.00000000D+00  0.00000000D+00  0.00000000D+00  0.00000000D+00
  0.00000000D+00  0.00000000D+00  0.00000000D+00  0.20343076D+01  0.16101262D+01
  0.70097104D+00  0.00000000D+00  0.00000000D+00  0.14230063D+00  0.00000000D+00
  0.00000000D+00  0.00000000D+00  0.00000000D+00  0.31304200D-01 -0.59769203D-01
  0.00000000D+00  0.00000000D+00  0.00000000D+00  0.00000000D+00  0.00000000D+00
  0.00000000D+00  0.29518890D-01  0.00000000D+00  0.00000000D+00  0.00000000D+00
  0.00000000D+00  0.00000000D+00  0.00000000D+00  0.27893827D-01  0.00000000D+00
  0.00000000D+00  0.00000000D+00  0.00000000D+00  0.00000000D+00  0.00000000D+00
  0.00000000D+00  0.00000000D+00 -0.00000000D+00 -0.00000000D+00 -0.00000000D+00
 -0.00000000D+00 -0.00000000D+00 -0.00000000D+00 -0.00000000D+00  0.00000000D+00
  0.00000000D+00  0.00000000D+00  0.00000000D+00  0.00000000D+00  0.00000000D+00
  0.00000000D+00  0.00000000D+00 -0.26944464D-01 -0.21326169D-01 -0.92843819D-02
  0.00000000D+00  0.00000000D+00 -0.33146583D-03  0.00000000D+00  0.00000000D+00
  0.00000000D+00  0.00000000D+00 -0.25391038D-02 -0.90440084D-03  0.15475084D-02
  0.26249471D-02  0.29876454D-02 -0.17750006D-02  0.11082764D-03 -0.61454849D-03
 -0.35864085D-03 -0.15475084D-02 -0.26249471D-02 -0.29876454D-02  0.17750006D-02
 -0.11082764D-03  0.61454849D-03 -0.35864085D-03
END DATA
RHF
