[Molden Format]
[Atoms] AU
 S     1 16     0.000000     0.000000     0.197021
 H     2  1     1.844123     0.000000    -1.576164
 H     3  1    -1.844123     0.000000    -1.576164
[GTO]
  1 0
 s   1 1.00
 110800.0000000000  1.00000000
 s   1 1.00
  16610.0000000000  1.00000000
 s   1 1.00
   3781.0000000000  1.00000000
 s   1 1.00
   1071.0000000000  1.00000000
 s   1 1.00
    349.8000000000  1.00000000
 s   1 1.00
    126.3000000000  1.00000000
 s   1 1.00
     49.2600000000  1.00000000
 s   1 1.00
     20.1600000000  1.00000000
 s   1 1.00
      5.7200000000  1.00000000
 s   1 1.00
      2.1820000000  1.00000000
 s   1 1.00
      0.4327000000  1.00000000
 s   1 1.00
      0.1570000000  1.00000000
 p   1 1.00
    399.7000000000  1.00000000
 p   1 1.00
     94.1900000000  1.00000000
 p   1 1.00
     29.7500000000  1.00000000
 p   1 1.00
     10.7700000000  1.00000000
 p   1 1.00
      4.1190000000  1.00000000
 p   1 1.00
      1.6250000000  1.00000000
 p   1 1.00
      0.4726000000  1.00000000
 p   1 1.00
      0.1407000000  1.00000000
 d   1 1.00
      0.4790000000  1.00000000
  
  2 0
 s   1 1.00
     13.0100000000  1.00000000
 s   1 1.00
      1.9620000000  1.00000000
 s   1 1.00
      0.4446000000  1.00000000
 s   1 1.00
      0.1220000000  1.00000000
 p   1 1.00
      0.7270000000  1.00000000
  
  3 0
 s   1 1.00
     13.0100000000  1.00000000
 s   1 1.00
      1.9620000000  1.00000000
 s   1 1.00
      0.4446000000  1.00000000
 s   1 1.00
      0.1220000000  1.00000000
 p   1 1.00
      0.7270000000  1.00000000
  
  
[MO]
 Ene=     0.0000
 Spin= Alpha
 Occup=   2.000000
      1      0.00024764
      2      0.00192026
      3      0.00996192
      4      0.04029751
      5      0.12860393
      6      0.30347973
      7      0.42142981
      8      0.23078015
      9      0.01790323
     10     -0.00299475
     11      0.00096712
     12     -0.00054280
     13      0.00000000
     14      0.00000000
     15     -0.00000027
     16      0.00000000
     17      0.00000000
     18     -0.00000211
     19      0.00000000
     20      0.00000000
     21     -0.00000876
     22      0.00000000
     23      0.00000000
     24     -0.00002165
     25      0.00000000
     26      0.00000000
     27     -0.00002639
     28      0.00000000
     29      0.00000000
     30     -0.00001796
     31      0.00000000
     32      0.00000000
     33     -0.00003615
     34      0.00000000
     35      0.00000000
     36      0.00008017
     37      0.00001482
     38     -0.00002132
     39      0.00000650
     40      0.00000000
     41      0.00000000
     42      0.00000000
     43     -0.00000109
     44     -0.00000765
     45     -0.00002650
     46      0.00010086
     47      0.00003720
     48      0.00000000
     49     -0.00003967
     50     -0.00000109
     51     -0.00000765
     52     -0.00002650
     53      0.00010086
     54     -0.00003720
     55      0.00000000
     56     -0.00003967
 Ene=     1.0000
 Spin= Alpha
 Occup=   2.000000
      1     -0.00006866
      2     -0.00052737
      3     -0.00279515
      4     -0.01125864
      5     -0.03886383
      6     -0.09945444
      7     -0.19968439
      8     -0.12330959
      9      0.51302039
     10      0.60611988
     11      0.04313470
     12     -0.01388957
     13      0.00000000
     14      0.00000000
     15     -0.00002869
     16      0.00000000
     17      0.00000000
     18     -0.00021982
     19      0.00000000
     20      0.00000000
     21     -0.00091902
     22      0.00000000
     23      0.00000000
     24     -0.00226346
     25      0.00000000
     26      0.00000000
     27     -0.00284193
     28      0.00000000
     29      0.00000000
     30     -0.00161745
     31      0.00000000
     32      0.00000000
     33     -0.00204801
     34      0.00000000
     35      0.00000000
     36      0.00239617
     37      0.00029949
     38     -0.00048908
     39      0.00018959
     40      0.00000000
     41      0.00000000
     42      0.00000000
     43     -0.00001612
     44     -0.00011297
     45     -0.00039151
     46      0.00254229
     47      0.00064211
     48      0.00000000
     49     -0.00064917
     50     -0.00001612
     51     -0.00011297
     52     -0.00039151
     53      0.00254229
     54     -0.00064211
     55      0.00000000
     56     -0.00064917
 Ene=     2.0000
 Spin= Alpha
 Occup=   2.000000
      1      0.00000000
      2      0.00000000
      3      0.00000000
      4      0.00000000
      5      0.00000000
      6      0.00000000
      7      0.00000000
      8      0.00000000
      9      0.00000000
     10      0.00000000
     11      0.00000000
     12      0.00000000
     13      0.00447457
     14      0.00000000
     15      0.00000000
     16      0.03416467
     17      0.00000000
     18      0.00000000
     19      0.14422105
     20      0.00000000
     21      0.00000000
     22      0.35385993
     23      0.00000000
     24      0.00000000
     25      0.45896430
     26      0.00000000
     27      0.00000000
     28      0.20644587
     29      0.00000000
     30      0.00000000
     31      0.01089550
     32      0.00000000
     33      0.00000000
     34     -0.00094439
     35      0.00000000
     36      0.00000000
     37      0.00000000
     38      0.00000000
     39      0.00000000
     40      0.00000000
     41     -0.00064474
     42      0.00000000
     43      0.00000357
     44      0.00002503
     45      0.00008673
     46      0.00021110
     47     -0.00000393
     48      0.00000000
     49      0.00002534
     50     -0.00000357
     51     -0.00002503
     52     -0.00008673
     53     -0.00021110
     54     -0.00000393
     55      0.00000000
     56     -0.00002534
 Ene=     3.0000
 Spin= Alpha
 Occup=   2.000000
      1     -0.00000050
      2     -0.00000382
      3     -0.00002021
      4     -0.00008152
      5     -0.00028070
      6     -0.00071948
      7     -0.00143703
      8     -0.00090005
      9      0.00381408
     10      0.00499323
     11     -0.00181733
     12      0.00110962
     13      0.00000000
     14      0.00000000
     15      0.00447573
     16      0.00000000
     17      0.00000000
     18      0.03417317
     19      0.00000000
     20      0.00000000
     21      0.14426086
     22      0.00000000
     23      0.00000000
     24      0.35395382
     25      0.00000000
     26      0.00000000
     27      0.45912755
     28      0.00000000
     29      0.00000000
     30      0.20636937
     31      0.00000000
     32      0.00000000
     33      0.01002377
     34      0.00000000
     35      0.00000000
     36     -0.00085943
     37      0.00019759
     38      0.00020582
     39     -0.00040341
     40      0.00000000
     41      0.00000000
     42      0.00000000
     43     -0.00001262
     44     -0.00008848
     45     -0.00030662
     46     -0.00029300
     47      0.00007920
     48      0.00000000
     49     -0.00018778
     50     -0.00001262
     51     -0.00008848
     52     -0.00030662
     53     -0.00029300
     54     -0.00007920
     55      0.00000000
     56     -0.00018778
 Ene=     4.0000
 Spin= Alpha
 Occup=   2.000000
      1      0.00000000
      2      0.00000000
      3      0.00000000
      4      0.00000000
      5      0.00000000
      6      0.00000000
      7      0.00000000
      8      0.00000000
      9      0.00000000
     10      0.00000000
     11      0.00000000
     12      0.00000000
     13      0.00000000
     14      0.00447829
     15      0.00000000
     16      0.00000000
     17      0.03419214
     18      0.00000000
     19      0.00000000
     20      0.14434796
     21      0.00000000
     22      0.00000000
     23      0.35416078
     24      0.00000000
     25      0.00000000
     26      0.45947000
     27      0.00000000
     28      0.00000000
     29      0.20625587
     30      0.00000000
     31      0.00000000
     32      0.00846941
     33      0.00000000
     34      0.00000000
     35     -0.00005106
     36      0.00000000
     37      0.00000000
     38      0.00000000
     39      0.00000000
     40      0.00000000
     41      0.00000000
     42     -0.00029730
     43      0.00000000
     44      0.00000000
     45      0.00000000
     46      0.00000000
     47      0.00000000
     48      0.00001005
     49      0.00000000
     50      0.00000000
     51      0.00000000
     52      0.00000000
     53      0.00000000
     54      0.00000000
     55      0.00001005
     56      0.00000000
 Ene=     5.0000
 Spin= Alpha
 Occup=   2.000000
      1      0.00001756
      2      0.00013534
      3      0.00071388
      4      0.00290052
      5      0.00996086
      6      0.02611648
      7      0.05283649
      8      0.03630938
      9     -0.18157917
     10     -0.34161608
     11      0.54400712
     12      0.41649982
     13      0.00000000
     14      0.00000000
     15      0.00018349
     16      0.00000000
     17      0.00000000
     18      0.00137467
     19      0.00000000
     20      0.00000000
     21      0.00610829
     22      0.00000000
     23      0.00000000
     24      0.01469403
     25      0.00000000
     26      0.00000000
     27      0.02226919
     28      0.00000000
     29      0.00000000
     30     -0.00158768
     31      0.00000000
     32      0.00000000
     33     -0.06724327
     34      0.00000000
     35      0.00000000
     36     -0.01798927
     37      0.00610240
     38     -0.01226592
     39      0.00616352
     40      0.00000000
     41      0.00000000
     42      0.00000000
     43      0.00605482
     44      0.04243970
     45      0.14707132
     46      0.02516930
     47     -0.01972998
     48      0.00000000
     49      0.01699065
     50      0.00605482
     51      0.04243970
     52      0.14707132
     53      0.02516930
     54      0.01972998
     55      0.00000000
     56      0.01699065
 Ene=     6.0000
 Spin= Alpha
 Occup=   2.000000
      1      0.00000000
      2      0.00000000
      3      0.00000000
      4      0.00000000
      5      0.00000000
      6      0.00000000
      7      0.00000000
      8      0.00000000
      9      0.00000000
     10      0.00000000
     11      0.00000000
     12      0.00000000
     13     -0.00085601
     14      0.00000000
     15      0.00000000
     16     -0.00638551
     17      0.00000000
     18      0.00000000
     19     -0.02869984
     20      0.00000000
     21      0.00000000
     22     -0.06874249
     23      0.00000000
     24      0.00000000
     25     -0.10750300
     26      0.00000000
     27      0.00000000
     28      0.01793987
     29      0.00000000
     30      0.00000000
     31      0.38462238
     32      0.00000000
     33      0.00000000
     34      0.23046780
     35      0.00000000
     36      0.00000000
     37      0.00000000
     38      0.00000000
     39      0.00000000
     40      0.00000000
     41     -0.08628627
     42      0.00000000
     43      0.01047939
     44      0.07345259
     45      0.25454392
     46      0.13436143
     47     -0.01071326
     48      0.00000000
     49      0.02070981
     50     -0.01047939
     51     -0.07345259
     52     -0.25454392
     53     -0.13436143
     54     -0.01071326
     55      0.00000000
     56     -0.02070981
 Ene=     7.0000
 Spin= Alpha
 Occup=   2.000000
      1      0.00000726
      2      0.00005594
      3      0.00029550
      4      0.00120048
      5      0.00414385
      6      0.01092210
      7      0.02248650
      8      0.01550413
      9     -0.07943214
     10     -0.14755512
     11      0.22989996
     12      0.36578740
     13      0.00000000
     14      0.00000000
     15     -0.00093418
     16      0.00000000
     17      0.00000000
     18     -0.00696565
     19      0.00000000
     20      0.00000000
     21     -0.03134311
     22      0.00000000
     23      0.00000000
     24     -0.07504140
     25      0.00000000
     26      0.00000000
     27     -0.11771593
     28      0.00000000
     29      0.00000000
     30      0.02073047
     31      0.00000000
     32      0.00000000
     33      0.42750612
     34      0.00000000
     35      0.00000000
     36      0.34785752
     37     -0.01132813
     38      0.03951472
     39     -0.02818659
     40      0.00000000
     41      0.00000000
     42      0.00000000
     43     -0.00724553
     44     -0.05078567
     45     -0.17599358
     46     -0.09104964
     47      0.01740054
     48      0.00000000
     49     -0.00333744
     50     -0.00724553
     51     -0.05078567
     52     -0.17599358
     53     -0.09104964
     54     -0.01740054
     55      0.00000000
     56     -0.00333744
 Ene=     8.0000
 Spin= Alpha
 Occup=   2.000000
      1      0.00000000
      2      0.00000000
      3      0.00000000
      4      0.00000000
      5      0.00000000
      6      0.00000000
      7      0.00000000
      8      0.00000000
      9      0.00000000
     10      0.00000000
     11      0.00000000
     12      0.00000000
     13      0.00000000
     14     -0.00111146
     15      0.00000000
     16      0.00000000
     17     -0.00828028
     18      0.00000000
     19      0.00000000
     20     -0.03734376
     21      0.00000000
     22      0.00000000
     23     -0.08933127
     24      0.00000000
     25      0.00000000
     26     -0.14099449
     27      0.00000000
     28      0.00000000
     29      0.02740695
     30      0.00000000
     31      0.00000000
     32      0.52709622
     33      0.00000000
     34      0.00000000
     35      0.56059037
     36      0.00000000
     37      0.00000000
     38      0.00000000
     39      0.00000000
     40      0.00000000
     41      0.00000000
     42     -0.02003111
     43      0.00000000
     44      0.00000000
     45      0.00000000
     46      0.00000000
     47      0.00000000
     48      0.02008362
     49      0.00000000
     50      0.00000000
     51      0.00000000
     52      0.00000000
     53      0.00000000
     54      0.00000000
     55      0.02008362
     56      0.00000000
