 Molden2AIM, Version 4.2.1 (05/11/2018)           Time: Mon Jun 18 01:44:32 2018
GAUSSIAN              7 MOL ORBITALS     70 PRIMITIVES        2 NUCLEI
  N    1    (CENTRE  1)   0.00000000  0.00000000  1.03708170  CHARGE =  7.0
  N    2    (CENTRE  2)   0.00000000  0.00000000 -1.03708170  CHARGE =  7.0
CENTRE ASSIGNMENTS    1  1  1  1  1  1  1  1  1  1  1  1  1  1  1  1  1  1  1  1
CENTRE ASSIGNMENTS    1  1  1  1  1  1  1  1  1  1  1  1  1  1  1  2  2  2  2  2
CENTRE ASSIGNMENTS    2  2  2  2  2  2  2  2  2  2  2  2  2  2  2  2  2  2  2  2
CENTRE ASSIGNMENTS    2  2  2  2  2  2  2  2  2  2
TYPE ASSIGNMENTS      1  1  1  1  1  1  1  1  1  1  1  1  1  1  1  1  1  2  2  2
TYPE ASSIGNMENTS      3  3  3  4  4  4  2  3  4  5  6  7  8  9 10  1  1  1  1  1
TYPE ASSIGNMENTS      1  1  1  1  1  1  1  1  1  1  1  1  2  2  2  3  3  3  4  4
TYPE ASSIGNMENTS      4  2  3  4  5  6  7  8  9 10
EXPONENTS  0.9046000D+04 0.1357000D+04 0.3093000D+03 0.8773000D+02 0.2856000D+02
EXPONENTS  0.1021000D+02 0.3838000D+01 0.7466000D+00 0.9046000D+04 0.1357000D+04
EXPONENTS  0.3093000D+03 0.8773000D+02 0.2856000D+02 0.1021000D+02 0.3838000D+01
EXPONENTS  0.7466000D+00 0.2248000D+00 0.1355000D+02 0.2917000D+01 0.7973000D+00
EXPONENTS  0.1355000D+02 0.2917000D+01 0.7973000D+00 0.1355000D+02 0.2917000D+01
EXPONENTS  0.7973000D+00 0.2185000D+00 0.2185000D+00 0.2185000D+00 0.8170000D+00
EXPONENTS  0.8170000D+00 0.8170000D+00 0.8170000D+00 0.8170000D+00 0.8170000D+00
EXPONENTS  0.9046000D+04 0.1357000D+04 0.3093000D+03 0.8773000D+02 0.2856000D+02
EXPONENTS  0.1021000D+02 0.3838000D+01 0.7466000D+00 0.9046000D+04 0.1357000D+04
EXPONENTS  0.3093000D+03 0.8773000D+02 0.2856000D+02 0.1021000D+02 0.3838000D+01
EXPONENTS  0.7466000D+00 0.2248000D+00 0.1355000D+02 0.2917000D+01 0.7973000D+00
EXPONENTS  0.1355000D+02 0.2917000D+01 0.7973000D+00 0.1355000D+02 0.2917000D+01
EXPONENTS  0.7973000D+00 0.2185000D+00 0.2185000D+00 0.2185000D+00 0.8170000D+00
EXPONENTS  0.8170000D+00 0.8170000D+00 0.8170000D+00 0.8170000D+00 0.8170000D+00
MO    1     MO 0.0        OCC NO =    2.0000000  ORB. ENERGY =    0.000000
  0.32712542D+00  0.60703941D+00  0.10183672D+01  0.14905415D+01  0.17348634D+01
  0.12907564D+01  0.38438726D+00  0.62479436D-02 -0.77254595D-04 -0.14702537D-03
 -0.24057317D-03 -0.38299834D-03 -0.45367934D-03 -0.49150868D-03 -0.18185573D-03
  0.24003864D-03 -0.37297573D-03  0.00000000D+00  0.00000000D+00  0.00000000D+00
  0.00000000D+00  0.00000000D+00  0.00000000D+00 -0.29983342D-02 -0.23919089D-02
 -0.11108239D-02  0.00000000D+00  0.00000000D+00  0.12351134D-03 -0.23273712D-03
 -0.23273712D-03  0.46547425D-03  0.00000000D+00  0.00000000D+00  0.00000000D+00
  0.32712542D+00  0.60703941D+00  0.10183672D+01  0.14905415D+01  0.17348634D+01
  0.12907564D+01  0.38438726D+00  0.62479436D-02 -0.77254595D-04 -0.14702537D-03
 -0.24057317D-03 -0.38299834D-03 -0.45367934D-03 -0.49150868D-03 -0.18185573D-03
  0.24003864D-03 -0.37297573D-03  0.00000000D+00  0.00000000D+00  0.00000000D+00
  0.00000000D+00  0.00000000D+00  0.00000000D+00  0.29983342D-02  0.23919089D-02
  0.11108239D-02  0.00000000D+00  0.00000000D+00 -0.12351134D-03 -0.23273712D-03
 -0.23273712D-03  0.46547425D-03  0.00000000D+00  0.00000000D+00  0.00000000D+00
MO    2     MO 0.0        OCC NO =    2.0000000  ORB. ENERGY =    0.000000
  0.32763236D+00  0.60798013D+00  0.10199454D+01  0.14928514D+01  0.17375519D+01
  0.12927567D+01  0.38498294D+00  0.62576260D-02 -0.33604007D-03 -0.63952720D-03
 -0.10464391D-02 -0.16659564D-02 -0.19734028D-02 -0.21379519D-02 -0.79103142D-03
  0.10441140D-02 -0.10709447D-02  0.00000000D+00  0.00000000D+00  0.00000000D+00
  0.00000000D+00  0.00000000D+00  0.00000000D+00 -0.51631037D-02 -0.41188450D-02
 -0.19128284D-02  0.00000000D+00  0.00000000D+00  0.29511693D-03 -0.69920634D-03
 -0.69920634D-03  0.13984127D-02  0.00000000D+00  0.00000000D+00  0.00000000D+00
 -0.32763236D+00 -0.60798013D+00 -0.10199454D+01 -0.14928514D+01 -0.17375519D+01
 -0.12927567D+01 -0.38498294D+00 -0.62576260D-02  0.33604007D-03  0.63952720D-03
  0.10464391D-02  0.16659564D-02  0.19734028D-02  0.21379519D-02  0.79103142D-03
 -0.10441140D-02  0.10709447D-02  0.00000000D+00  0.00000000D+00  0.00000000D+00
  0.00000000D+00  0.00000000D+00  0.00000000D+00 -0.51631037D-02 -0.41188450D-02
 -0.19128284D-02  0.00000000D+00  0.00000000D+00  0.29511693D-03  0.69920634D-03
  0.69920634D-03 -0.13984127D-02  0.00000000D+00  0.00000000D+00  0.00000000D+00
MO    3     MO 0.0        OCC NO =    2.0000000  ORB. ENERGY =    0.000000
 -0.40129938D-02 -0.74468239D-02 -0.12492766D-01 -0.18285139D-01 -0.21282345D-01
 -0.15834286D-01 -0.47154504D-02 -0.76646318D-04 -0.67357637D-01 -0.12819019D+00
 -0.20975374D+00 -0.33393306D+00 -0.39555923D+00 -0.42854232D+00 -0.15855849D+00
  0.20928769D+00  0.45148870D-01  0.00000000D+00  0.00000000D+00  0.00000000D+00
  0.00000000D+00  0.00000000D+00  0.00000000D+00 -0.47551772D+00 -0.37934232D+00
 -0.17616997D+00  0.00000000D+00  0.00000000D+00 -0.77192937D-02 -0.16493518D-01
 -0.16493518D-01  0.32987037D-01  0.00000000D+00  0.00000000D+00  0.00000000D+00
 -0.40129938D-02 -0.74468239D-02 -0.12492766D-01 -0.18285139D-01 -0.21282345D-01
 -0.15834286D-01 -0.47154504D-02 -0.76646318D-04 -0.67357637D-01 -0.12819019D+00
 -0.20975374D+00 -0.33393306D+00 -0.39555923D+00 -0.42854232D+00 -0.15855849D+00
  0.20928769D+00  0.45148870D-01  0.00000000D+00  0.00000000D+00  0.00000000D+00
  0.00000000D+00  0.00000000D+00  0.00000000D+00  0.47551772D+00  0.37934232D+00
  0.17616997D+00  0.00000000D+00  0.00000000D+00  0.77192937D-02 -0.16493518D-01
 -0.16493518D-01  0.32987037D-01  0.00000000D+00  0.00000000D+00  0.00000000D+00
MO    4     MO 0.0        OCC NO =    2.0000000  ORB. ENERGY =    0.000000
  0.16000864D-02  0.29692449D-02  0.49811950D-02  0.72907667D-02  0.84858316D-02
  0.63135472D-02  0.18801743D-02  0.30560907D-04 -0.66015853D-01 -0.12563660D+00
 -0.20557539D+00 -0.32728101D+00 -0.38767957D+00 -0.42000563D+00 -0.15539996D+00
  0.20511862D+00  0.98168916D-01  0.00000000D+00  0.00000000D+00  0.00000000D+00
  0.00000000D+00  0.00000000D+00  0.00000000D+00  0.47139899D+00  0.37605662D+00
  0.17464406D+00  0.00000000D+00  0.00000000D+00  0.24310201D-01  0.77525433D-02
  0.77525433D-02 -0.15505087D-01  0.00000000D+00  0.00000000D+00  0.00000000D+00
 -0.16000864D-02 -0.29692449D-02 -0.49811950D-02 -0.72907667D-02 -0.84858316D-02
 -0.63135472D-02 -0.18801743D-02 -0.30560907D-04  0.66015853D-01  0.12563660D+00
  0.20557539D+00  0.32728101D+00  0.38767957D+00  0.42000563D+00  0.15539996D+00
 -0.20511862D+00 -0.98168916D-01  0.00000000D+00  0.00000000D+00  0.00000000D+00
  0.00000000D+00  0.00000000D+00  0.00000000D+00  0.47139899D+00  0.37605662D+00
  0.17464406D+00  0.00000000D+00  0.00000000D+00  0.24310201D-01 -0.77525433D-02
 -0.77525433D-02  0.15505087D-01  0.00000000D+00  0.00000000D+00  0.00000000D+00
MO    5     MO 0.0        OCC NO =    2.0000000  ORB. ENERGY =    0.000000
 -0.52907882D-02 -0.98179986D-02 -0.16470641D-01 -0.24107388D-01 -0.28058946D-01
 -0.20876149D-01 -0.62169170D-02 -0.10105160D-03 -0.19377592D-01 -0.36878034D-01
 -0.60342414D-01 -0.96066591D-01 -0.11379534D+00 -0.12328399D+00 -0.45614453D-01
  0.60208339D-01  0.76937335D-01  0.00000000D+00  0.00000000D+00  0.00000000D+00
  0.00000000D+00  0.00000000D+00  0.00000000D+00  0.99156836D+00  0.79101962D+00
  0.36735659D+00  0.00000000D+00  0.00000000D+00  0.45413290D-01  0.14433761D-01
  0.14433761D-01 -0.28867522D-01  0.00000000D+00  0.00000000D+00  0.00000000D+00
 -0.52907882D-02 -0.98179986D-02 -0.16470641D-01 -0.24107388D-01 -0.28058946D-01
 -0.20876149D-01 -0.62169170D-02 -0.10105160D-03 -0.19377592D-01 -0.36878034D-01
 -0.60342414D-01 -0.96066591D-01 -0.11379534D+00 -0.12328399D+00 -0.45614453D-01
  0.60208339D-01  0.76937335D-01  0.00000000D+00  0.00000000D+00  0.00000000D+00
  0.00000000D+00  0.00000000D+00  0.00000000D+00 -0.99156836D+00 -0.79101962D+00
 -0.36735659D+00  0.00000000D+00  0.00000000D+00 -0.45413290D-01  0.14433761D-01
  0.14433761D-01 -0.28867522D-01  0.00000000D+00  0.00000000D+00  0.00000000D+00
MO    6     MO 0.0        OCC NO =    2.0000000  ORB. ENERGY =    0.000000
  0.00000000D+00  0.00000000D+00  0.00000000D+00  0.00000000D+00  0.00000000D+00
  0.00000000D+00  0.00000000D+00  0.00000000D+00 -0.00000000D+00 -0.00000000D+00
 -0.00000000D+00 -0.00000000D+00 -0.00000000D+00 -0.00000000D+00 -0.00000000D+00
  0.00000000D+00  0.00000000D+00  0.00000000D+00  0.00000000D+00  0.00000000D+00
  0.93085668D+00  0.74258713D+00  0.34486410D+00  0.00000000D+00  0.00000000D+00
  0.00000000D+00  0.00000000D+00  0.54703787D-01  0.00000000D+00  0.00000000D+00
  0.00000000D+00  0.00000000D+00  0.00000000D+00  0.00000000D+00 -0.95154924D-01
  0.00000000D+00  0.00000000D+00  0.00000000D+00  0.00000000D+00  0.00000000D+00
  0.00000000D+00  0.00000000D+00  0.00000000D+00 -0.00000000D+00 -0.00000000D+00
 -0.00000000D+00 -0.00000000D+00 -0.00000000D+00 -0.00000000D+00 -0.00000000D+00
  0.00000000D+00  0.00000000D+00  0.00000000D+00  0.00000000D+00  0.00000000D+00
  0.93085668D+00  0.74258713D+00  0.34486410D+00  0.00000000D+00  0.00000000D+00
  0.00000000D+00  0.00000000D+00  0.54703787D-01  0.00000000D+00  0.00000000D+00
  0.00000000D+00  0.00000000D+00  0.00000000D+00  0.00000000D+00  0.95154924D-01
MO    7     MO 0.0        OCC NO =    2.0000000  ORB. ENERGY =    0.000000
  0.00000000D+00  0.00000000D+00  0.00000000D+00  0.00000000D+00  0.00000000D+00
  0.00000000D+00  0.00000000D+00  0.00000000D+00 -0.00000000D+00 -0.00000000D+00
 -0.00000000D+00 -0.00000000D+00 -0.00000000D+00 -0.00000000D+00 -0.00000000D+00
  0.00000000D+00  0.00000000D+00  0.93085668D+00  0.74258713D+00  0.34486410D+00
  0.00000000D+00  0.00000000D+00  0.00000000D+00  0.00000000D+00  0.00000000D+00
  0.00000000D+00  0.54703787D-01  0.00000000D+00  0.00000000D+00  0.00000000D+00
  0.00000000D+00  0.00000000D+00  0.00000000D+00 -0.95154924D-01  0.00000000D+00
  0.00000000D+00  0.00000000D+00  0.00000000D+00  0.00000000D+00  0.00000000D+00
  0.00000000D+00  0.00000000D+00  0.00000000D+00 -0.00000000D+00 -0.00000000D+00
 -0.00000000D+00 -0.00000000D+00 -0.00000000D+00 -0.00000000D+00 -0.00000000D+00
  0.00000000D+00  0.00000000D+00  0.93085668D+00  0.74258713D+00  0.34486410D+00
  0.00000000D+00  0.00000000D+00  0.00000000D+00  0.00000000D+00  0.00000000D+00
  0.00000000D+00  0.54703787D-01  0.00000000D+00  0.00000000D+00  0.00000000D+00
  0.00000000D+00  0.00000000D+00  0.00000000D+00  0.95154924D-01  0.00000000D+00
END DATA
RHF
