 Molden2AIM, Version 4.0.0 (06/02/2016)           Time: Sun Jun 24 01:56:19 2018
GAUSSIAN              5 MOL ORBITALS     49 PRIMITIVES        3 NUCLEI
  O    1    (CENTRE  1)  -0.22263395 -0.00314586  0.00000000  CHARGE =  8.0
  H    2    (CENTRE  2)   0.90030684 -1.42099037  0.00000000  CHARGE =  1.0
  H    3    (CENTRE  3)   0.88076475  1.44615727  0.00000000  CHARGE =  1.0
CENTRE ASSIGNMENTS    1  1  1  1  1  1  1  1  1  1  1  1  1  1  1  1  1  1  1  1
CENTRE ASSIGNMENTS    1  1  1  1  1  1  1  1  1  1  1  1  1  1  1  2  2  2  2  2
CENTRE ASSIGNMENTS    2  2  3  3  3  3  3  3  3
TYPE ASSIGNMENTS      1  1  1  1  1  1  1  1  1  1  1  1  1  1  1  1  1  2  2  2
TYPE ASSIGNMENTS      3  3  3  4  4  4  2  3  4  5  6  7  8  9 10  1  1  1  1  2
TYPE ASSIGNMENTS      3  4  1  1  1  1  2  3  4
EXPONENTS  0.1172000D+05 0.1759000D+04 0.4008000D+03 0.1137000D+03 0.3703000D+02
EXPONENTS  0.1327000D+02 0.5025000D+01 0.1013000D+01 0.1172000D+05 0.1759000D+04
EXPONENTS  0.4008000D+03 0.1137000D+03 0.3703000D+02 0.1327000D+02 0.5025000D+01
EXPONENTS  0.1013000D+01 0.3023000D+00 0.1770000D+02 0.3854000D+01 0.1046000D+01
EXPONENTS  0.1770000D+02 0.3854000D+01 0.1046000D+01 0.1770000D+02 0.3854000D+01
EXPONENTS  0.1046000D+01 0.2753000D+00 0.2753000D+00 0.2753000D+00 0.1185000D+01
EXPONENTS  0.1185000D+01 0.1185000D+01 0.1185000D+01 0.1185000D+01 0.1185000D+01
EXPONENTS  0.1301000D+02 0.1962000D+01 0.4446000D+00 0.1220000D+00 0.7270000D+00
EXPONENTS  0.7270000D+00 0.7270000D+00 0.1301000D+02 0.1962000D+01 0.4446000D+00
EXPONENTS  0.1220000D+00 0.7270000D+00 0.7270000D+00 0.7270000D+00
MO    1     MO 0.0        OCC NO =    2.0000000  ORB. ENERGY =    0.000000
  0.57021033D+00  0.10592970D+01  0.17778669D+01  0.26017326D+01  0.30295483D+01
  0.22243784D+01  0.64837377D+00  0.11128623D-01 -0.29164039D-03 -0.55511724D-03
 -0.90842163D-03 -0.14489578D-02 -0.17228223D-02 -0.18610137D-02 -0.63518880D-03
  0.91071209D-03 -0.78033234D-03  0.56918179D-02  0.45049948D-02  0.19612567D-02
  0.23843793D-05  0.18872031D-05  0.82159689D-06  0.00000000D+00  0.00000000D+00
  0.00000000D+00 -0.14049735D-03 -0.39399752D-05  0.00000000D+00  0.23685600D-04
  0.23831137D-03 -0.26199697D-03 -0.47952401D-04  0.00000000D+00  0.00000000D+00
 -0.39266273D-04 -0.66605062D-04 -0.75808119D-04  0.62243048D-04  0.46801173D-03
 -0.54211875D-03  0.00000000D+00 -0.33696252D-04 -0.57156965D-04 -0.65054545D-04
  0.61867254D-04  0.44304750D-03  0.53126608D-03  0.00000000D+00
MO    2     MO 0.0        OCC NO =    2.0000000  ORB. ENERGY =    1.000000
 -0.45996643D-02 -0.85449353D-02 -0.14341358D-01 -0.20987162D-01 -0.24438184D-01
 -0.17943193D-01 -0.52301782D-02 -0.89770256D-04 -0.11188991D+00 -0.21297467D+00
 -0.34852241D+00 -0.55590296D+00 -0.66097301D+00 -0.71399111D+00 -0.24369469D+00
  0.34940116D+00  0.10978900D+00  0.25421180D+00  0.20120511D+00  0.87594966D-01
 -0.18597761D-02 -0.14719869D-02 -0.64083187D-03  0.00000000D+00  0.00000000D+00
  0.00000000D+00 -0.35963748D-02  0.56893310D-04  0.00000000D+00  0.27953208D-02
  0.43010516D-02 -0.70963723D-02 -0.64173655D-03  0.00000000D+00  0.00000000D+00
  0.31758203D-01  0.53869565D-01  0.61312914D-01  0.14918104D-02 -0.20083392D-01
  0.35473508D-01  0.00000000D+00  0.31157546D-01  0.52850707D-01  0.60153276D-01
  0.14984473D-02 -0.19084664D-01 -0.35483300D-01  0.00000000D+00
MO    3     MO 0.0        OCC NO =    2.0000000  ORB. ENERGY =    2.000000
 -0.30823688D-05 -0.57262098D-05 -0.96105615D-05 -0.14064108D-04 -0.16376738D-04
 -0.12024256D-04 -0.35048946D-05 -0.60157660D-07 -0.48531928D-03 -0.92377155D-03
 -0.15117060D-02 -0.24112132D-02 -0.28669516D-02 -0.30969160D-02 -0.10570188D-02
  0.15155175D-02  0.15464091D-02 -0.27111934D-01 -0.21458719D-01 -0.93420878D-02
  0.15879905D+01  0.12568724D+01  0.54718142D+00  0.00000000D+00  0.00000000D+00
  0.00000000D+00 -0.10335265D-02  0.63417347D-01  0.00000000D+00 -0.11636184D-02
  0.85687172D-03  0.30674670D-03  0.10245568D+00  0.00000000D+00  0.00000000D+00
 -0.53762767D-01 -0.91194611D-01 -0.10379529D+00 -0.13257312D-01  0.31444270D-01
 -0.22050793D-01  0.00000000D+00  0.53267396D-01  0.90354341D-01  0.10283892D+00
  0.13381808D-01 -0.31039119D-01 -0.22478256D-01  0.00000000D+00
MO    4     MO 0.0        OCC NO =    2.0000000  ORB. ENERGY =    3.000000
  0.12424762D-02  0.23081856D-02  0.38739341D-02  0.56691199D-02  0.66013213D-02
  0.48468733D-02  0.14127926D-02  0.24249032D-04  0.37949892D-01  0.72234985D-01
  0.11820894D+00  0.18854656D+00  0.22418335D+00  0.24216559D+00  0.82654347D-01
 -0.11850699D+00 -0.10145907D+00  0.17674186D+01  0.13988873D+01  0.60900784D+00
  0.25098130D-01  0.19864821D-01  0.86481820D-02  0.00000000D+00  0.00000000D+00
  0.00000000D+00  0.10379887D+00  0.14391548D-02  0.00000000D+00  0.39541738D-01
 -0.10970192D-01 -0.28571546D-01  0.11468234D-02  0.00000000D+00  0.00000000D+00
  0.33517189D-01  0.56853230D-01  0.64708842D-01  0.58226850D-02  0.70519738D-02
  0.30355044D-01  0.00000000D+00  0.34097397D-01  0.57837403D-01  0.65829002D-01
  0.62438879D-02  0.70574956D-02 -0.30465889D-01  0.00000000D+00
MO    5     MO 0.0        OCC NO =    2.0000000  ORB. ENERGY =    4.000000
  0.00000000D+00  0.00000000D+00  0.00000000D+00  0.00000000D+00  0.00000000D+00
  0.00000000D+00  0.00000000D+00  0.00000000D+00 -0.00000000D+00 -0.00000000D+00
 -0.00000000D+00 -0.00000000D+00 -0.00000000D+00 -0.00000000D+00 -0.00000000D+00
  0.00000000D+00  0.00000000D+00  0.00000000D+00  0.00000000D+00  0.00000000D+00
  0.00000000D+00  0.00000000D+00  0.00000000D+00  0.20477195D+01  0.16207415D+01
  0.70559242D+00  0.00000000D+00  0.00000000D+00  0.14091974D+00  0.00000000D+00
  0.00000000D+00  0.00000000D+00  0.00000000D+00  0.69743417D-01  0.34116009D-03
  0.00000000D+00  0.00000000D+00  0.00000000D+00  0.00000000D+00  0.00000000D+00
  0.00000000D+00  0.29756180D-01  0.00000000D+00  0.00000000D+00  0.00000000D+00
  0.00000000D+00  0.00000000D+00  0.00000000D+00  0.29494273D-01
END DATA
RHF
