[Molden Format]
[Atoms] AU
 O     1  8    -0.222634    -0.003146     0.000000
 H     2  1     0.900307    -1.420990     0.000000
 H     3  1     0.880765     1.446157     0.000000
[GTO]
  1 0
 s   1 1.00
  11720.0000000000  1.00000000
 s   1 1.00
   1759.0000000000  1.00000000
 s   1 1.00
    400.8000000000  1.00000000
 s   1 1.00
    113.7000000000  1.00000000
 s   1 1.00
     37.0300000000  1.00000000
 s   1 1.00
     13.2700000000  1.00000000
 s   1 1.00
      5.0250000000  1.00000000
 s   1 1.00
      1.0130000000  1.00000000
 s   1 1.00
      0.3023000000  1.00000000
 p   1 1.00
     17.7000000000  1.00000000
 p   1 1.00
      3.8540000000  1.00000000
 p   1 1.00
      1.0460000000  1.00000000
 p   1 1.00
      0.2753000000  1.00000000
 d   1 1.00
      1.1850000000  1.00000000
  
  2 0
 s   1 1.00
     13.0100000000  1.00000000
 s   1 1.00
      1.9620000000  1.00000000
 s   1 1.00
      0.4446000000  1.00000000
 s   1 1.00
      0.1220000000  1.00000000
 p   1 1.00
      0.7270000000  1.00000000
  
  3 0
 s   1 1.00
     13.0100000000  1.00000000
 s   1 1.00
      1.9620000000  1.00000000
 s   1 1.00
      0.4446000000  1.00000000
 s   1 1.00
      0.1220000000  1.00000000
 p   1 1.00
      0.7270000000  1.00000000
  
  
[MO]
 Ene=     0.0000
 Spin= Alpha
 Occup=   2.000000
      1      0.00070992
      2      0.00546929
      3      0.02783373
      4      0.10478287
      5      0.28301240
      6      0.44852007
      7      0.27079312
      8      0.01672959
      9     -0.00268560
     10      0.00010999
     11      0.00000005
     12      0.00000000
     13      0.00058528
     14      0.00000025
     15      0.00000000
     16      0.00130071
     17      0.00000054
     18      0.00000000
     19     -0.00049428
     20     -0.00001386
     21      0.00000000
     22      0.00001069
     23      0.00010758
     24     -0.00011827
     25     -0.00001250
     26      0.00000000
     27      0.00000000
     28     -0.00000804
     29     -0.00005637
     30     -0.00019536
     31      0.00042307
     32      0.00048910
     33     -0.00056655
     34      0.00000000
     35     -0.00000690
     36     -0.00004838
     37     -0.00016764
     38      0.00042051
     39      0.00046301
     40      0.00055521
     41      0.00000000
 Ene=     1.0000
 Spin= Alpha
 Occup=   2.000000
      1     -0.00014510
      2     -0.00114433
      3     -0.00568379
      4     -0.02324677
      5     -0.06406574
      6     -0.14770963
      7     -0.10406535
      8      0.48539530
      9      0.37785061
     10      0.00491235
     11     -0.00003594
     12      0.00000000
     13      0.02614022
     14     -0.00019124
     15      0.00000000
     16      0.05809309
     17     -0.00042500
     18      0.00000000
     19     -0.01265223
     20      0.00020015
     21      0.00000000
     22      0.00126187
     23      0.00194159
     24     -0.00320346
     25     -0.00016726
     26      0.00000000
     27      0.00000000
     28      0.00650486
     29      0.04559415
     30      0.15800280
     31      0.01013990
     32     -0.02098838
     33      0.03707200
     34      0.00000000
     35      0.00638183
     36      0.04473181
     37      0.15501442
     38      0.01018501
     39     -0.01994465
     40     -0.03708223
     41      0.00000000
 Ene=     2.0000
 Spin= Alpha
 Occup=   2.000000
      1     -0.00000061
      2     -0.00000480
      3     -0.00002383
      4     -0.00009773
      5     -0.00026951
      6     -0.00062741
      7     -0.00044336
      8      0.00210585
      9      0.00532213
     10     -0.00052391
     11      0.03068607
     12      0.00000000
     13     -0.00278788
     14      0.16329070
     15      0.00000000
     16     -0.00619568
     17      0.36289138
     18      0.00000000
     19     -0.00363600
     20      0.22310547
     21      0.00000000
     22     -0.00052528
     23      0.00038681
     24      0.00013847
     25      0.02670293
     26      0.00000000
     27      0.00000000
     28     -0.01101193
     29     -0.07718534
     30     -0.26747947
     31     -0.09011052
     32      0.03286120
     33     -0.02304444
     34      0.00000000
     35      0.01091047
     36      0.07647415
     37      0.26501492
     38      0.09095673
     39     -0.03243779
     40     -0.02349116
     41      0.00000000
 Ene=     3.0000
 Spin= Alpha
 Occup=   2.000000
      1      0.00004882
      2      0.00038508
      3      0.00191227
      4      0.00782625
      5      0.02157156
      6      0.04984890
      7      0.03514505
      8     -0.16464097
      9     -0.34918226
     10      0.03415331
     11      0.00048499
     12      0.00000000
     13      0.18174104
     14      0.00258080
     15      0.00000000
     16      0.40389473
     17      0.00573548
     18      0.00000000
     19      0.36516973
     20      0.00506302
     21      0.00000000
     22      0.01785004
     23     -0.00495219
     24     -0.01289785
     25      0.00029890
     26      0.00000000
     27      0.00000000
     28      0.00686514
     29      0.04811947
     30      0.16675407
     31      0.03957704
     32      0.00736975
     33      0.03172289
     34      0.00000000
     35      0.00698398
     36      0.04895245
     37      0.16964071
     38      0.04243998
     39      0.00737552
     40     -0.03183873
     41      0.00000000
 Ene=     4.0000
 Spin= Alpha
 Occup=   2.000000
      1      0.00000000
      2      0.00000000
      3      0.00000000
      4      0.00000000
      5      0.00000000
      6      0.00000000
      7      0.00000000
      8      0.00000000
      9      0.00000000
     10      0.00000000
     11      0.00000000
     12      0.03956979
     13      0.00000000
     14      0.00000000
     15      0.21056395
     16      0.00000000
     17      0.00000000
     18      0.46794974
     19      0.00000000
     20      0.00000000
     21      0.49576285
     22      0.00000000
     23      0.00000000
     24      0.00000000
     25      0.00000000
     26      0.01817716
     27      0.00008892
     28      0.00000000
     29      0.00000000
     30      0.00000000
     31      0.00000000
     32      0.00000000
     33      0.00000000
     34      0.03109704
     35      0.00000000
     36      0.00000000
     37      0.00000000
     38      0.00000000
     39      0.00000000
     40      0.00000000
     41      0.03082333
