[Molden Format]
[Atoms] AU
 O     1  8    -2.856961     0.228029     0.000000
 H     2  1    -3.586221    -1.427102    -0.000000
 H     3  1    -1.060105    -0.070763    -0.000000
 O     4  8     2.625010    -0.215641    -0.000000
 H     5  1     3.250966     0.699380    -1.433473
 H     6  1     3.250966     0.699380     1.433473
[GTO]
  1 0
 s   1 1.00
  11720.0000000000  1.00000000
 s   1 1.00
   1759.0000000000  1.00000000
 s   1 1.00
    400.8000000000  1.00000000
 s   1 1.00
    113.7000000000  1.00000000
 s   1 1.00
     37.0300000000  1.00000000
 s   1 1.00
     13.2700000000  1.00000000
 s   1 1.00
      5.0250000000  1.00000000
 s   1 1.00
      1.0130000000  1.00000000
 s   1 1.00
      0.3023000000  1.00000000
 p   1 1.00
     17.7000000000  1.00000000
 p   1 1.00
      3.8540000000  1.00000000
 p   1 1.00
      1.0460000000  1.00000000
 p   1 1.00
      0.2753000000  1.00000000
 d   1 1.00
      1.1850000000  1.00000000
  
  2 0
 s   1 1.00
     13.0100000000  1.00000000
 s   1 1.00
      1.9620000000  1.00000000
 s   1 1.00
      0.4446000000  1.00000000
 s   1 1.00
      0.1220000000  1.00000000
 p   1 1.00
      0.7270000000  1.00000000
  
  3 0
 s   1 1.00
     13.0100000000  1.00000000
 s   1 1.00
      1.9620000000  1.00000000
 s   1 1.00
      0.4446000000  1.00000000
 s   1 1.00
      0.1220000000  1.00000000
 p   1 1.00
      0.7270000000  1.00000000
  
  4 0
 s   1 1.00
  11720.0000000000  1.00000000
 s   1 1.00
   1759.0000000000  1.00000000
 s   1 1.00
    400.8000000000  1.00000000
 s   1 1.00
    113.7000000000  1.00000000
 s   1 1.00
     37.0300000000  1.00000000
 s   1 1.00
     13.2700000000  1.00000000
 s   1 1.00
      5.0250000000  1.00000000
 s   1 1.00
      1.0130000000  1.00000000
 s   1 1.00
      0.3023000000  1.00000000
 p   1 1.00
     17.7000000000  1.00000000
 p   1 1.00
      3.8540000000  1.00000000
 p   1 1.00
      1.0460000000  1.00000000
 p   1 1.00
      0.2753000000  1.00000000
 d   1 1.00
      1.1850000000  1.00000000
  
  5 0
 s   1 1.00
     13.0100000000  1.00000000
 s   1 1.00
      1.9620000000  1.00000000
 s   1 1.00
      0.4446000000  1.00000000
 s   1 1.00
      0.1220000000  1.00000000
 p   1 1.00
      0.7270000000  1.00000000
  
  6 0
 s   1 1.00
     13.0100000000  1.00000000
 s   1 1.00
      1.9620000000  1.00000000
 s   1 1.00
      0.4446000000  1.00000000
 s   1 1.00
      0.1220000000  1.00000000
 p   1 1.00
      0.7270000000  1.00000000
  
  
[MO]
 Ene=     0.0000
 Spin= Alpha
 Occup=   2.000000
      1     -0.00000000
      2     -0.00000002
      3     -0.00000006
      4     -0.00000070
      5     -0.00000221
      6     -0.00001541
      7     -0.00001314
      8      0.00012596
      9     -0.00022180
     10      0.00000318
     11      0.00000011
     12      0.00000000
     13      0.00001694
     14      0.00000056
     15      0.00000000
     16      0.00003766
     17      0.00000125
     18      0.00000000
     19     -0.00017096
     20     -0.00004326
     21      0.00000000
     22     -0.00000097
     23      0.00000323
     24     -0.00000225
     25     -0.00000749
     26      0.00000000
     27      0.00000000
     28      0.00000043
     29      0.00000304
     30      0.00001052
     31     -0.00016347
     32      0.00000266
     33     -0.00001372
     34      0.00000000
     35      0.00000107
     36      0.00000747
     37      0.00002588
     38      0.00040286
     39      0.00009599
     40      0.00002311
     41      0.00000000
     42      0.00070991
     43      0.00546927
     44      0.02783365
     45      0.10478223
     46      0.28301044
     47      0.44850855
     48      0.27078343
     49      0.01681885
     50     -0.00276126
     51      0.00005340
     52      0.00008914
     53      0.00000000
     54      0.00028413
     55      0.00047432
     56      0.00000000
     57      0.00063145
     58      0.00105411
     59      0.00000000
     60     -0.00006871
     61     -0.00039202
     62      0.00000000
     63     -0.00009105
     64     -0.00002478
     65      0.00011583
     66      0.00007660
     67      0.00000000
     68      0.00000000
     69     -0.00000710
     70     -0.00004978
     71     -0.00017250
     72      0.00035489
     73      0.00023927
     74      0.00039912
     75     -0.00056955
     76     -0.00000710
     77     -0.00004978
     78     -0.00017250
     79      0.00035489
     80      0.00023927
     81      0.00039912
     82      0.00056955
 Ene=     1.0000
 Spin= Alpha
 Occup=   2.000000
      1      0.00070992
      2      0.00546931
      3      0.02783392
      4      0.10478287
      5      0.28301190
      6      0.44850130
      7      0.27077599
      8      0.01691999
      9     -0.00313101
     10      0.00004904
     11     -0.00009478
     12      0.00000000
     13      0.00026096
     14     -0.00050436
     15      0.00000000
     16      0.00057996
     17     -0.00112088
     18      0.00000000
     19     -0.00051643
     20      0.00038854
     21      0.00000000
     22      0.00006110
     23      0.00004923
     24     -0.00011032
     25      0.00005337
     26      0.00000000
     27      0.00000000
     28     -0.00000699
     29     -0.00004899
     30     -0.00016979
     31      0.00018463
     32     -0.00026887
     33     -0.00071622
     34      0.00000000
     35     -0.00000391
     36     -0.00002738
     37     -0.00009488
     38      0.00109330
     39      0.00065576
     40     -0.00011719
     41      0.00000000
     42      0.00000001
     43      0.00000010
     44      0.00000055
     45      0.00000147
     46      0.00000355
     47     -0.00000946
     48     -0.00001058
     49      0.00016008
     50     -0.00020971
     51     -0.00000671
     52     -0.00000056
     53      0.00000000
     54     -0.00003570
     55     -0.00000300
     56      0.00000000
     57     -0.00007934
     58     -0.00000666
     59      0.00000000
     60      0.00047520
     61      0.00004176
     62      0.00000000
     63     -0.00001662
     64      0.00001149
     65      0.00000513
     66      0.00002298
     67      0.00000000
     68      0.00000000
     69      0.00000042
     70      0.00000295
     71      0.00001023
     72     -0.00014986
     73     -0.00006535
     74      0.00002360
     75     -0.00003793
     76      0.00000042
     77      0.00000295
     78      0.00001023
     79     -0.00014986
     80     -0.00006535
     81      0.00002360
     82      0.00003793
 Ene=     2.0000
 Spin= Alpha
 Occup=   2.000000
      1     -0.00000987
      2     -0.00007787
      3     -0.00038640
      4     -0.00158516
      5     -0.00437156
      6     -0.01018627
      7     -0.00720026
      8      0.03425703
      9      0.01913228
     10      0.00035274
     11     -0.00027772
     12      0.00000000
     13      0.00187704
     14     -0.00147787
     15      0.00000000
     16      0.00417147
     17     -0.00328436
     18      0.00000000
     19     -0.00227549
     20      0.00071756
     21      0.00000000
     22      0.00009442
     23      0.00006538
     24     -0.00015980
     25     -0.00017302
     26      0.00000000
     27      0.00000000
     28      0.00042055
     29      0.00294776
     30      0.01021522
     31     -0.00213328
     32      0.00159551
     33      0.00234026
     34      0.00000000
     35      0.00073007
     36      0.00511727
     37      0.01773349
     38      0.01115768
     39     -0.00300276
     40      0.00092143
     41      0.00000000
     42     -0.00014501
     43     -0.00114362
     44     -0.00568025
     45     -0.02323197
     46     -0.06402473
     47     -0.14760743
     48     -0.10399165
     49      0.48500339
     50      0.37948737
     51      0.00251392
     52      0.00404900
     53      0.00000000
     54      0.01337738
     55      0.02154608
     56      0.00000000
     57      0.02972939
     58      0.04788324
     59      0.00000000
     60     -0.00933101
     61     -0.00988179
     62      0.00000000
     63     -0.00137121
     64     -0.00050997
     65      0.00188118
     66      0.00232341
     67      0.00000000
     68      0.00000000
     69      0.00636367
     70      0.04460452
     71      0.15457330
     72      0.00715894
     73     -0.01143818
     74     -0.01672085
     75      0.03673394
     76      0.00636367
     77      0.04460452
     78      0.15457330
     79      0.00715894
     80     -0.01143818
     81     -0.01672085
     82     -0.03673394
 Ene=     3.0000
 Spin= Alpha
 Occup=   2.000000
      1     -0.00014485
      2     -0.00114223
      3     -0.00567388
      4     -0.02319868
      5     -0.06392837
      6     -0.14722216
      7     -0.10368408
      8      0.48254567
      9      0.37981883
     10      0.00226390
     11     -0.00431271
     12      0.00000000
     13      0.01204694
     14     -0.02294933
     15      0.00000000
     16      0.02677269
     17     -0.05100177
     18      0.00000000
     19     -0.00600160
     20      0.01258614
     21      0.00000000
     22      0.00159221
     23      0.00148357
     24     -0.00307579
     25      0.00051371
     26      0.00000000
     27      0.00000000
     28      0.00651468
     29      0.04566300
     30      0.15824140
     31      0.01179363
     32      0.02275170
     33      0.03563450
     34      0.00000000
     35      0.00622562
     36      0.04363693
     37      0.15122021
     38      0.00896390
     39     -0.04271400
     40      0.00066593
     41      0.00000000
     42      0.00001131
     43      0.00008920
     44      0.00044309
     45      0.00181194
     46      0.00499331
     47      0.01150542
     48      0.00810429
     49     -0.03775640
     50     -0.03015888
     51     -0.00057081
     52     -0.00035301
     53      0.00000000
     54     -0.00303749
     55     -0.00187848
     56      0.00000000
     57     -0.00675042
     58     -0.00417467
     59      0.00000000
     60     -0.00137996
     61      0.00096112
     62      0.00000000
     63      0.00024843
     64      0.00000024
     65     -0.00024867
     66     -0.00032946
     67      0.00000000
     68      0.00000000
     69     -0.00056098
     70     -0.00393205
     71     -0.01362619
     72     -0.00053698
     73      0.00057553
     74      0.00142494
     75     -0.00319373
     76     -0.00056098
     77     -0.00393205
     78     -0.01362619
     79     -0.00053698
     80      0.00057553
     81      0.00142494
     82      0.00319373
 Ene=     4.0000
 Spin= Alpha
 Occup=   2.000000
      1      0.00000000
      2      0.00000000
      3      0.00000000
      4      0.00000000
      5      0.00000000
      6      0.00000000
      7      0.00000000
      8      0.00000000
      9      0.00000000
     10      0.00000000
     11      0.00000000
     12      0.00025947
     13      0.00000000
     14      0.00000000
     15      0.00138072
     16      0.00000000
     17      0.00000000
     18      0.00306846
     19      0.00000000
     20      0.00000000
     21      0.00387502
     22      0.00000000
     23      0.00000000
     24      0.00000000
     25      0.00000000
     26      0.00008264
     27     -0.00011417
     28      0.00000000
     29      0.00000000
     30      0.00000000
     31      0.00000000
     32      0.00000000
     33      0.00000000
     34      0.00005602
     35      0.00000000
     36      0.00000000
     37      0.00000000
     38      0.00000000
     39      0.00000000
     40      0.00000000
     41      0.00170793
     42      0.00000000
     43      0.00000000
     44      0.00000000
     45      0.00000000
     46      0.00000000
     47      0.00000000
     48      0.00000000
     49      0.00000000
     50      0.00000000
     51      0.00000000
     52      0.00000000
     53      0.03098389
     54      0.00000000
     55      0.00000000
     56      0.16487555
     57      0.00000000
     58      0.00000000
     59      0.36641347
     60      0.00000000
     61      0.00000000
     62      0.22800400
     63      0.00000000
     64      0.00000000
     65      0.00000000
     66      0.00000000
     67      0.01399796
     68      0.02207023
     69     -0.01084795
     70     -0.07603596
     71     -0.26349637
     72     -0.08150462
     73      0.01878429
     74      0.02701347
     75     -0.02377473
     76      0.01084795
     77      0.07603596
     78      0.26349637
     79      0.08150462
     80     -0.01878429
     81     -0.02701347
     82     -0.02377473
 Ene=     5.0000
 Spin= Alpha
 Occup=   2.000000
      1      0.00000181
      2      0.00001424
      3      0.00007104
      4      0.00028636
      5      0.00078651
      6      0.00171871
      7      0.00118990
      8     -0.00495624
      9     -0.01118866
     10      0.02609984
     11      0.01294509
     12      0.00000000
     13      0.13888591
     14      0.06888510
     15      0.00000000
     16      0.30865502
     17      0.15308777
     18      0.00000000
     19      0.19145775
     20      0.09216469
     21      0.00000000
     22      0.01745545
     23     -0.01756441
     24      0.00010896
     25     -0.01410045
     26      0.00000000
     27      0.00000000
     28     -0.01027364
     29     -0.07201049
     30     -0.24954646
     31     -0.08954252
     32     -0.00319708
     33     -0.03732219
     34      0.00000000
     35      0.01045866
     36      0.07330732
     37      0.25404052
     38      0.09553800
     39     -0.03664583
     40      0.01638634
     41      0.00000000
     42     -0.00000603
     43     -0.00004743
     44     -0.00023604
     45     -0.00095911
     46     -0.00263920
     47     -0.00594289
     48     -0.00415545
     49      0.01849123
     50      0.05829890
     51     -0.00923298
     52     -0.00314934
     53      0.00000000
     54     -0.04913176
     55     -0.01675869
     56      0.00000000
     57     -0.10918865
     58     -0.03724390
     59      0.00000000
     60     -0.09620646
     61     -0.02260572
     62      0.00000000
     63      0.00075685
     64     -0.00075317
     65     -0.00000368
     66     -0.00464081
     67      0.00000000
     68      0.00000000
     69     -0.00180074
     70     -0.01262182
     71     -0.04373989
     72     -0.00969469
     73     -0.00359472
     74      0.00195393
     75     -0.00911816
     76     -0.00180074
     77     -0.01262182
     78     -0.04373989
     79     -0.00969469
     80     -0.00359472
     81      0.00195393
     82      0.00911816
 Ene=     6.0000
 Spin= Alpha
 Occup=   2.000000
      1     -0.00001388
      2     -0.00010908
      3     -0.00054364
      4     -0.00219834
      5     -0.00604241
      6     -0.01336500
      7     -0.00929050
      8      0.03978074
      9      0.10813816
     10      0.00442996
     11      0.00896185
     12      0.00000000
     13      0.02357326
     14      0.04768898
     15      0.00000000
     16      0.05238836
     17      0.10598227
     18      0.00000000
     19      0.03898919
     20      0.08791536
     21      0.00000000
     22      0.00502952
     23     -0.00726026
     24      0.00223074
     25     -0.00200442
     26      0.00000000
     27      0.00000000
     28     -0.00393744
     29     -0.02759850
     30     -0.09564035
     31     -0.02295731
     32     -0.00570261
     33     -0.01096490
     34      0.00000000
     35      0.00100564
     36      0.00704878
     37      0.02442697
     38     -0.03935624
     39     -0.00697627
     40      0.00911481
     41      0.00000000
     42      0.00004518
     43      0.00035634
     44      0.00176990
     45      0.00723913
     46      0.01995045
     47      0.04600222
     48      0.03241080
     49     -0.15120340
     50     -0.32972704
     51      0.01805122
     52      0.02712855
     53      0.00000000
     54      0.09605649
     55      0.14435999
     56      0.00000000
     57      0.21347248
     58      0.32082044
     59      0.00000000
     60      0.18443525
     61      0.28803632
     62      0.00000000
     63     -0.00434587
     64      0.00859434
     65     -0.00424847
     66      0.01399139
     67      0.00000000
     68      0.00000000
     69      0.00650698
     70      0.04560900
     71      0.15805427
     72      0.04361127
     73      0.00285335
     74      0.00431523
     75      0.03153452
     76      0.00650698
     77      0.04560900
     78      0.15805427
     79      0.04361127
     80      0.00285335
     81      0.00431523
     82     -0.03153452
 Ene=     7.0000
 Spin= Alpha
 Occup=   2.000000
      1     -0.00004093
      2     -0.00032282
      3     -0.00160312
      4     -0.00656065
      5     -0.01808294
      6     -0.04177900
      7     -0.02945370
      8      0.13792800
      9      0.28798886
     10     -0.01050222
     11      0.02530798
     12      0.00000000
     13     -0.05588579
     14      0.13467214
     15      0.00000000
     16     -0.12419856
     17      0.29929049
     18      0.00000000
     19     -0.12476723
     20      0.26767010
     21      0.00000000
     22      0.00173296
     23     -0.01176870
     24      0.01003574
     25      0.00702468
     26      0.00000000
     27      0.00000000
     28     -0.00658723
     29     -0.04617152
     30     -0.16000362
     31     -0.04584448
     32     -0.02454502
     33     -0.01035946
     34      0.00000000
     35     -0.00465930
     36     -0.03265819
     37     -0.11317430
     38     -0.01781659
     39      0.01723048
     40      0.01612048
     41      0.00000000
     42     -0.00001120
     43     -0.00008857
     44     -0.00043862
     45     -0.00181128
     46     -0.00500271
     47     -0.01192444
     48     -0.00848755
     49      0.04203682
     50      0.06913484
     51      0.01399467
     52     -0.01760194
     53      0.00000000
     54      0.07447026
     55     -0.09366573
     56      0.00000000
     57      0.16550003
     58     -0.20815934
     59      0.00000000
     60      0.18424634
     61     -0.20785315
     62      0.00000000
     63      0.00666928
     64     -0.00843908
     65      0.00176980
     66      0.00100505
     67      0.00000000
     68      0.00000000
     69     -0.00121174
     70     -0.00849337
     71     -0.02943307
     72     -0.00760196
     73      0.01154498
     74     -0.01079177
     75     -0.00583071
     76     -0.00121174
     77     -0.00849337
     78     -0.02943307
     79     -0.00760196
     80      0.01154498
     81     -0.01079177
     82      0.00583071
 Ene=     8.0000
 Spin= Alpha
 Occup=   2.000000
      1      0.00002080
      2      0.00016428
      3      0.00081466
      4      0.00334989
      5      0.00924334
      6      0.02171475
      7      0.01538799
      8     -0.07430516
      9     -0.14150327
     10      0.01480589
     11     -0.01468977
     12      0.00000000
     13      0.07878702
     14     -0.07816910
     15      0.00000000
     16      0.17509344
     17     -0.17372019
     18      0.00000000
     19      0.16222096
     20     -0.16735597
     21      0.00000000
     22      0.00374074
     23      0.00379920
     24     -0.00753994
     25     -0.00886207
     26      0.00000000
     27      0.00000000
     28      0.00209711
     29      0.01469914
     30      0.05093867
     31      0.02067962
     32      0.01847688
     33     -0.00152529
     34      0.00000000
     35      0.00501792
     36      0.03517183
     37      0.12188510
     38     -0.03050442
     39     -0.01975225
     40     -0.01049134
     41      0.00000000
     42      0.00000536
     43      0.00004215
     44      0.00020990
     45      0.00085081
     46      0.00233985
     47      0.00522161
     48      0.00364040
     49     -0.01589382
     50     -0.04531764
     51      0.02855352
     52     -0.01596526
     53      0.00000000
     54      0.15194273
     55     -0.08495643
     56      0.00000000
     57      0.33767206
     58     -0.18880410
     59      0.00000000
     60      0.34445082
     61     -0.20816095
     62      0.00000000
     63      0.01103892
     64     -0.01074927
     65     -0.00028965
     66      0.00700666
     67      0.00000000
     68      0.00000000
     69      0.00067452
     70      0.00472789
     71      0.01638412
     72      0.01423395
     73      0.02095244
     74     -0.01422139
     75      0.00466086
     76      0.00067452
     77      0.00472789
     78      0.01638412
     79      0.01423395
     80      0.02095244
     81     -0.01422139
     82     -0.00466086
 Ene=     9.0000
 Spin= Alpha
 Occup=   2.000000
      1      0.00000000
      2      0.00000000
      3      0.00000000
      4      0.00000000
      5      0.00000000
      6      0.00000000
      7      0.00000000
      8      0.00000000
      9      0.00000000
     10      0.00000000
     11      0.00000000
     12      0.03931063
     13      0.00000000
     14      0.00000000
     15      0.20918483
     16      0.00000000
     17      0.00000000
     18      0.46488484
     19      0.00000000
     20      0.00000000
     21      0.50062089
     22      0.00000000
     23      0.00000000
     24      0.00000000
     25      0.00000000
     26      0.00815878
     27     -0.01557759
     28      0.00000000
     29      0.00000000
     30      0.00000000
     31      0.00000000
     32      0.00000000
     33      0.00000000
     34      0.03084906
     35      0.00000000
     36      0.00000000
     37      0.00000000
     38      0.00000000
     39      0.00000000
     40      0.00000000
     41      0.02915077
     42      0.00000000
     43      0.00000000
     44      0.00000000
     45      0.00000000
     46      0.00000000
     47      0.00000000
     48      0.00000000
     49      0.00000000
     50      0.00000000
     51      0.00000000
     52      0.00000000
     53     -0.00052067
     54      0.00000000
     55      0.00000000
     56     -0.00277066
     57      0.00000000
     58      0.00000000
     59     -0.00615741
     60      0.00000000
     61      0.00000000
     62     -0.00116611
     63      0.00000000
     64      0.00000000
     65      0.00000000
     66      0.00000000
     67     -0.00066176
     68     -0.00023571
     69      0.00031697
     70      0.00222170
     71      0.00769913
     72     -0.01206476
     73      0.00011582
     74     -0.00064224
     75     -0.00037480
     76     -0.00031697
     77     -0.00222170
     78     -0.00769913
     79      0.01206476
     80     -0.00011582
     81      0.00064224
     82     -0.00037480
