 Molden2AIM, Version 4.0.0 (06/02/2016)           Time: Wed Jun 20 02:11:46 2018
GAUSSIAN              9 MOL ORBITALS     99 PRIMITIVES        3 NUCLEI
  S    1    (CENTRE  1)   0.00000000  0.00000000  0.19702054  CHARGE = 16.0
  H    2    (CENTRE  2)   1.84412325  0.00000000 -1.57616429  CHARGE =  1.0
  H    3    (CENTRE  3)  -1.84412325  0.00000000 -1.57616429  CHARGE =  1.0
CENTRE ASSIGNMENTS    1  1  1  1  1  1  1  1  1  1  1  1  1  1  1  1  1  1  1  1
CENTRE ASSIGNMENTS    1  1  1  1  1  1  1  1  1  1  1  1  1  1  1  1  1  1  1  1
CENTRE ASSIGNMENTS    1  1  1  1  1  1  1  1  1  1  1  1  1  1  1  1  1  1  1  1
CENTRE ASSIGNMENTS    1  1  1  1  1  1  1  1  1  1  1  1  1  1  1  1  1  1  1  1
CENTRE ASSIGNMENTS    1  1  1  1  1  2  2  2  2  2  2  2  3  3  3  3  3  3  3
TYPE ASSIGNMENTS      1  1  1  1  1  1  1  1  1  1  1  1  1  1  1  1  1  1  1  1
TYPE ASSIGNMENTS      1  1  1  1  1  1  1  1  1  1  1  1  1  1  2  2  2  2  2  2
TYPE ASSIGNMENTS      2  3  3  3  3  3  3  3  4  4  4  4  4  4  4  2  2  2  2  2
TYPE ASSIGNMENTS      2  2  3  3  3  3  3  3  3  4  4  4  4  4  4  4  2  3  4  5
TYPE ASSIGNMENTS      6  7  8  9 10  1  1  1  1  2  3  4  1  1  1  1  2  3  4
EXPONENTS  0.1108000D+06 0.1661000D+05 0.3781000D+04 0.1071000D+04 0.3498000D+03
EXPONENTS  0.1263000D+03 0.4926000D+02 0.2016000D+02 0.5720000D+01 0.2182000D+01
EXPONENTS  0.4327000D+00 0.1108000D+06 0.1661000D+05 0.3781000D+04 0.1071000D+04
EXPONENTS  0.3498000D+03 0.1263000D+03 0.4926000D+02 0.2016000D+02 0.5720000D+01
EXPONENTS  0.2182000D+01 0.4327000D+00 0.1108000D+06 0.1661000D+05 0.3781000D+04
EXPONENTS  0.1071000D+04 0.3498000D+03 0.1263000D+03 0.4926000D+02 0.2016000D+02
EXPONENTS  0.5720000D+01 0.2182000D+01 0.4327000D+00 0.1570000D+00 0.3997000D+03
EXPONENTS  0.9419000D+02 0.2975000D+02 0.1077000D+02 0.4119000D+01 0.1625000D+01
EXPONENTS  0.4726000D+00 0.3997000D+03 0.9419000D+02 0.2975000D+02 0.1077000D+02
EXPONENTS  0.4119000D+01 0.1625000D+01 0.4726000D+00 0.3997000D+03 0.9419000D+02
EXPONENTS  0.2975000D+02 0.1077000D+02 0.4119000D+01 0.1625000D+01 0.4726000D+00
EXPONENTS  0.3997000D+03 0.9419000D+02 0.2975000D+02 0.1077000D+02 0.4119000D+01
EXPONENTS  0.1625000D+01 0.4726000D+00 0.3997000D+03 0.9419000D+02 0.2975000D+02
EXPONENTS  0.1077000D+02 0.4119000D+01 0.1625000D+01 0.4726000D+00 0.3997000D+03
EXPONENTS  0.9419000D+02 0.2975000D+02 0.1077000D+02 0.4119000D+01 0.1625000D+01
EXPONENTS  0.4726000D+00 0.1407000D+00 0.1407000D+00 0.1407000D+00 0.4790000D+00
EXPONENTS  0.4790000D+00 0.4790000D+00 0.4790000D+00 0.4790000D+00 0.4790000D+00
EXPONENTS  0.1301000D+02 0.1962000D+01 0.4446000D+00 0.1220000D+00 0.7270000D+00
EXPONENTS  0.7270000D+00 0.7270000D+00 0.1301000D+02 0.1962000D+01 0.4446000D+00
EXPONENTS  0.1220000D+00 0.7270000D+00 0.7270000D+00 0.7270000D+00
MO    1     MO 0.0        OCC NO =    2.0000000  ORB. ENERGY =    0.000000
  0.10718424D+01  0.20024024D+01  0.34234355D+01  0.53769289D+01  0.74136729D+01
  0.81488567D+01  0.55848615D+01  0.15648836D+01  0.47178462D-01 -0.38068475D-02
  0.32301961D-03 -0.25155315D-04 -0.46547057D-04 -0.81301019D-04 -0.12715127D-03
 -0.18961498D-03 -0.22601125D-03 -0.22391305D-03 -0.70759671D-04  0.11443850D-03
  0.65714188D-04  0.12761565D-05  0.15553569D-04  0.28889609D-04  0.50214325D-04
  0.79233318D-04  0.11754945D-03  0.14365240D-03  0.14348892D-03  0.50580465D-04
 -0.98722209D-04 -0.90743409D-04  0.43434843D-04 -0.96489136D-04  0.00000000D+00
  0.00000000D+00  0.00000000D+00  0.00000000D+00  0.00000000D+00  0.00000000D+00
  0.00000000D+00  0.00000000D+00  0.00000000D+00  0.00000000D+00  0.00000000D+00
  0.00000000D+00  0.00000000D+00  0.00000000D+00 -0.88687063D-03 -0.11117852D-02
 -0.11113076D-02 -0.76567472D-03 -0.29870507D-03 -0.41985602D-04 -0.44378949D-06
 -0.00000000D+00 -0.00000000D+00 -0.00000000D+00 -0.00000000D+00 -0.00000000D+00
  0.00000000D+00  0.00000000D+00 -0.00000000D+00 -0.00000000D+00 -0.00000000D+00
 -0.00000000D+00 -0.00000000D+00  0.00000000D+00  0.00000000D+00  0.18644076D-03
  0.22794592D-03  0.24371671D-03  0.16363775D-03  0.77931014D-04 -0.49706370D-05
 -0.19746942D-04  0.00000000D+00  0.00000000D+00  0.98467411D-05  0.67274230D-05
 -0.96763186D-05  0.29488956D-05  0.00000000D+00  0.00000000D+00  0.00000000D+00
 -0.53254965D-05 -0.90333256D-05 -0.10281492D-04  0.14838102D-04  0.35591975D-04
  0.00000000D+00 -0.37955625D-04 -0.53254965D-05 -0.90333256D-05 -0.10281492D-04
  0.14838102D-04 -0.35591975D-04  0.00000000D+00 -0.37955625D-04
MO    2     MO 0.0        OCC NO =    2.0000000  ORB. ENERGY =    1.000000
  0.24815489D-03  0.46359981D-03  0.79259996D-03  0.12448763D-02  0.17164269D-02
  0.18866380D-02  0.12930172D-02  0.36230467D-03  0.10922843D-04 -0.88136820D-06
  0.74786084D-07 -0.29790987D+00 -0.55124842D+00 -0.96283334D+00 -0.15058296D+01
 -0.22455760D+01 -0.26766105D+01 -0.26517619D+01 -0.83799405D+00  0.13552745D+01
  0.77824130D+00  0.15113292D-01  0.46117914D-03  0.85660628D-03  0.14889058D-02
  0.23493484D-02  0.34854608D-02  0.42594398D-02  0.42545922D-02  0.14997622D-02
 -0.29272139D-02 -0.26906343D-02  0.12878873D-02 -0.24690138D-02  0.00000000D+00
  0.00000000D+00  0.00000000D+00  0.00000000D+00  0.00000000D+00  0.00000000D+00
  0.00000000D+00  0.00000000D+00  0.00000000D+00  0.00000000D+00  0.00000000D+00
  0.00000000D+00  0.00000000D+00  0.00000000D+00 -0.83490594D-01 -0.10466421D+00
 -0.10461924D+00 -0.72081131D-01 -0.28120296D-01 -0.39525527D-02 -0.41778639D-04
 -0.00000000D+00 -0.00000000D+00 -0.00000000D+00 -0.00000000D+00 -0.00000000D+00
  0.00000000D+00  0.00000000D+00 -0.00000000D+00 -0.00000000D+00 -0.00000000D+00
 -0.00000000D+00 -0.00000000D+00  0.00000000D+00  0.00000000D+00  0.10405735D-01
  0.12722244D-01  0.13602452D-01  0.91330405D-02  0.43495288D-02 -0.27742394D-03
 -0.11021272D-02  0.00000000D+00  0.00000000D+00  0.29432433D-03  0.13595133D-03
 -0.22201200D-03  0.86060674D-04  0.00000000D+00  0.00000000D+00  0.00000000D+00
 -0.78691716D-04 -0.13348012D-03 -0.15192354D-03  0.37402905D-03  0.61442526D-03
  0.00000000D+00 -0.62118170D-03 -0.78691716D-04 -0.13348012D-03 -0.15192354D-03
  0.37402905D-03 -0.61442526D-03  0.00000000D+00 -0.62118170D-03
MO    3     MO 0.0        OCC NO =    2.0000000  ORB. ENERGY =    2.000000
  0.00000000D+00  0.00000000D+00  0.00000000D+00  0.00000000D+00  0.00000000D+00
  0.00000000D+00  0.00000000D+00  0.00000000D+00  0.00000000D+00 -0.00000000D+00
  0.00000000D+00 -0.00000000D+00 -0.00000000D+00 -0.00000000D+00 -0.00000000D+00
 -0.00000000D+00 -0.00000000D+00 -0.00000000D+00 -0.00000000D+00  0.00000000D+00
  0.00000000D+00  0.00000000D+00  0.00000000D+00  0.00000000D+00  0.00000000D+00
  0.00000000D+00  0.00000000D+00  0.00000000D+00  0.00000000D+00  0.00000000D+00
 -0.00000000D+00 -0.00000000D+00  0.00000000D+00  0.00000000D+00  0.11402392D+02
  0.14294093D+02  0.14287952D+02  0.98441903D+01  0.38404162D+01  0.53980397D+00
  0.57057495D-02  0.00000000D+00  0.00000000D+00  0.00000000D+00  0.00000000D+00
  0.00000000D+00  0.00000000D+00  0.00000000D+00  0.00000000D+00  0.00000000D+00
  0.00000000D+00  0.00000000D+00  0.00000000D+00  0.00000000D+00  0.00000000D+00
 -0.35865050D-02 -0.43849274D-02 -0.46883053D-02 -0.31478504D-02 -0.14991356D-02
  0.95618655D-04  0.37986600D-03 -0.00000000D+00 -0.00000000D+00 -0.00000000D+00
 -0.00000000D+00 -0.00000000D+00  0.00000000D+00  0.00000000D+00 -0.00000000D+00
 -0.00000000D+00 -0.00000000D+00 -0.00000000D+00 -0.00000000D+00  0.00000000D+00
  0.00000000D+00 -0.11600007D-03  0.00000000D+00  0.00000000D+00  0.00000000D+00
  0.00000000D+00  0.00000000D+00  0.00000000D+00 -0.50692208D-03  0.00000000D+00
  0.17431882D-04  0.29568674D-04  0.33654282D-04  0.31058333D-04 -0.37578355D-05
  0.00000000D+00  0.24246541D-04 -0.17431882D-04 -0.29568674D-04 -0.33654282D-04
 -0.31058333D-04 -0.37578355D-05  0.00000000D+00 -0.24246541D-04
MO    4     MO 0.0        OCC NO =    2.0000000  ORB. ENERGY =    3.000000
 -0.50414625D-04 -0.94183962D-04 -0.16102294D-03 -0.25290645D-03 -0.34870568D-03
 -0.38328541D-03 -0.26268665D-03 -0.73605055D-04 -0.22190617D-05  0.17905691D-06
 -0.15193383D-07 -0.18192112D-02 -0.33662440D-02 -0.58796212D-02 -0.91954727D-02
 -0.13712795D-01 -0.16344943D-01 -0.16193203D-01 -0.51172798D-02  0.82760956D-02
  0.47523947D-02  0.92290563D-04 -0.28048605D-03 -0.52098218D-03 -0.90554249D-03
 -0.14288579D-02 -0.21198338D-02 -0.25905626D-02 -0.25876144D-02 -0.91214529D-03
  0.17803118D-02  0.16364257D-02 -0.78328436D-03  0.19724574D-03  0.00000000D+00
  0.00000000D+00  0.00000000D+00  0.00000000D+00  0.00000000D+00  0.00000000D+00
  0.00000000D+00  0.00000000D+00  0.00000000D+00  0.00000000D+00  0.00000000D+00
  0.00000000D+00  0.00000000D+00  0.00000000D+00  0.11400751D+02  0.14292035D+02
  0.14285895D+02  0.98427733D+01  0.38398634D+01  0.53972627D+00  0.57049282D-02
 -0.00000000D+00 -0.00000000D+00 -0.00000000D+00 -0.00000000D+00 -0.00000000D+00
  0.00000000D+00  0.00000000D+00 -0.00000000D+00 -0.00000000D+00 -0.00000000D+00
 -0.00000000D+00 -0.00000000D+00  0.00000000D+00  0.00000000D+00  0.10028092D-02
  0.12260531D-02  0.13108794D-02  0.88015859D-03  0.41916765D-03 -0.26735572D-04
 -0.10621290D-03  0.00000000D+00  0.00000000D+00 -0.10556426D-03  0.89693432D-04
  0.93428666D-04 -0.18312210D-03  0.00000000D+00  0.00000000D+00  0.00000000D+00
 -0.61629943D-04 -0.10453924D-03 -0.11898379D-03 -0.43106293D-04  0.75785004D-04
  0.00000000D+00 -0.17968078D-03 -0.61629943D-04 -0.10453924D-03 -0.11898379D-03
 -0.43106293D-04 -0.75785004D-04  0.00000000D+00 -0.17968078D-03
MO    5     MO 0.0        OCC NO =    2.0000000  ORB. ENERGY =    4.000000
  0.00000000D+00  0.00000000D+00  0.00000000D+00  0.00000000D+00  0.00000000D+00
  0.00000000D+00  0.00000000D+00  0.00000000D+00  0.00000000D+00 -0.00000000D+00
  0.00000000D+00 -0.00000000D+00 -0.00000000D+00 -0.00000000D+00 -0.00000000D+00
 -0.00000000D+00 -0.00000000D+00 -0.00000000D+00 -0.00000000D+00  0.00000000D+00
  0.00000000D+00  0.00000000D+00  0.00000000D+00  0.00000000D+00  0.00000000D+00
  0.00000000D+00  0.00000000D+00  0.00000000D+00  0.00000000D+00  0.00000000D+00
 -0.00000000D+00 -0.00000000D+00  0.00000000D+00  0.00000000D+00  0.00000000D+00
  0.00000000D+00  0.00000000D+00  0.00000000D+00  0.00000000D+00  0.00000000D+00
  0.00000000D+00  0.11399092D+02  0.14289956D+02  0.14283817D+02  0.98413415D+01
  0.38393048D+01  0.53964776D+00  0.57040983D-02  0.00000000D+00  0.00000000D+00
  0.00000000D+00  0.00000000D+00  0.00000000D+00  0.00000000D+00  0.00000000D+00
 -0.00000000D+00 -0.00000000D+00 -0.00000000D+00 -0.00000000D+00 -0.00000000D+00
  0.00000000D+00  0.00000000D+00  0.91918980D-02  0.11238185D-01  0.12015716D-01
  0.80676646D-02  0.38421531D-02 -0.24506223D-03 -0.97356327D-03 -0.00000000D+00
 -0.00000000D+00 -0.00000000D+00 -0.00000000D+00 -0.00000000D+00  0.00000000D+00
  0.00000000D+00  0.00000000D+00 -0.62719062D-05  0.00000000D+00  0.00000000D+00
  0.00000000D+00  0.00000000D+00  0.00000000D+00  0.00000000D+00 -0.23374712D-03
  0.00000000D+00  0.00000000D+00  0.00000000D+00  0.00000000D+00  0.00000000D+00
  0.96189014D-05  0.00000000D+00  0.00000000D+00  0.00000000D+00  0.00000000D+00
  0.00000000D+00  0.00000000D+00  0.96189014D-05  0.00000000D+00
MO    6     MO 0.0        OCC NO =    2.0000000  ORB. ENERGY =    5.000000
  0.57473278D-04  0.10737085D-03  0.18356809D-03  0.28831639D-03  0.39752867D-03
  0.43694997D-03  0.29946594D-03  0.83910647D-04  0.25297570D-05 -0.20412703D-06
  0.17320640D-07  0.18251490D-02  0.33772313D-02  0.58988122D-02  0.92254865D-02
  0.13757553D-01  0.16398293D-01  0.16246057D-01  0.51339825D-02 -0.83031085D-02
 -0.47679064D-02 -0.92591797D-04  0.74103887D-01  0.13764251D+00  0.23924262D+00
  0.37750157D+00  0.56005610D+00  0.68442177D+00  0.68364285D+00  0.24098707D+00
 -0.47035502D+00 -0.43234059D+00  0.20694225D+00  0.74037143D-01  0.00000000D+00
  0.00000000D+00  0.00000000D+00  0.00000000D+00  0.00000000D+00  0.00000000D+00
  0.00000000D+00  0.00000000D+00  0.00000000D+00  0.00000000D+00  0.00000000D+00
  0.00000000D+00  0.00000000D+00  0.00000000D+00  0.11229299D+00  0.14077103D+00
  0.14071055D+00  0.96947515D-01  0.37821171D-01  0.53160953D-02  0.56191339D-04
 -0.00000000D+00 -0.00000000D+00 -0.00000000D+00 -0.00000000D+00 -0.00000000D+00
  0.00000000D+00  0.00000000D+00 -0.00000000D+00 -0.00000000D+00 -0.00000000D+00
 -0.00000000D+00 -0.00000000D+00  0.00000000D+00  0.00000000D+00  0.35513733D+00
  0.43419748D+00  0.46423809D+00  0.31170155D+00  0.14844508D+00 -0.94682021D-02
 -0.37614502D-01  0.00000000D+00  0.00000000D+00 -0.22096385D-02  0.27701113D-02
 -0.55679672D-02  0.27978559D-02  0.00000000D+00  0.00000000D+00  0.00000000D+00
  0.29561001D-01  0.50142582D-01  0.57070960D-01  0.37029783D-02 -0.18879249D-01
  0.00000000D+00  0.16258035D-01  0.29561001D-01  0.50142582D-01  0.57070960D-01
  0.37029783D-02  0.18879249D-01  0.00000000D+00  0.16258035D-01
MO    7     MO 0.0        OCC NO =    2.0000000  ORB. ENERGY =    6.000000
  0.00000000D+00  0.00000000D+00  0.00000000D+00  0.00000000D+00  0.00000000D+00
  0.00000000D+00  0.00000000D+00  0.00000000D+00  0.00000000D+00 -0.00000000D+00
  0.00000000D+00 -0.00000000D+00 -0.00000000D+00 -0.00000000D+00 -0.00000000D+00
 -0.00000000D+00 -0.00000000D+00 -0.00000000D+00 -0.00000000D+00  0.00000000D+00
  0.00000000D+00  0.00000000D+00  0.00000000D+00  0.00000000D+00  0.00000000D+00
  0.00000000D+00  0.00000000D+00  0.00000000D+00  0.00000000D+00  0.00000000D+00
 -0.00000000D+00 -0.00000000D+00  0.00000000D+00  0.00000000D+00 -0.15163263D+00
 -0.19008738D+00 -0.19000572D+00 -0.13091117D+00 -0.51071073D-01 -0.71784845D-02
 -0.75876868D-04  0.00000000D+00  0.00000000D+00  0.00000000D+00  0.00000000D+00
  0.00000000D+00  0.00000000D+00  0.00000000D+00  0.00000000D+00  0.00000000D+00
  0.00000000D+00  0.00000000D+00  0.00000000D+00  0.00000000D+00  0.00000000D+00
 -0.20290192D+01 -0.24807165D+01 -0.26523486D+01 -0.17808560D+01 -0.84811672D+00
  0.54095028D-01  0.21490432D+00 -0.00000000D+00 -0.00000000D+00 -0.00000000D+00
 -0.00000000D+00 -0.00000000D+00  0.00000000D+00  0.00000000D+00 -0.00000000D+00
 -0.00000000D+00 -0.00000000D+00 -0.00000000D+00 -0.00000000D+00  0.00000000D+00
  0.00000000D+00  0.28308572D-01  0.00000000D+00  0.00000000D+00  0.00000000D+00
  0.00000000D+00  0.00000000D+00  0.00000000D+00 -0.67842044D-01  0.00000000D+00
  0.51162749D-01  0.86784353D-01  0.98775655D-01  0.19767629D-01 -0.10251320D-01
  0.00000000D+00  0.19816835D-01 -0.51162749D-01 -0.86784353D-01 -0.98775655D-01
 -0.19767629D-01 -0.10251320D-01  0.00000000D+00 -0.19816835D-01
MO    8     MO 0.0        OCC NO =    2.0000000  ORB. ENERGY =    7.000000
 -0.21901829D-02 -0.40916719D-02 -0.69953846D-02 -0.10987117D-01 -0.15148962D-01
 -0.16651223D-01 -0.11412002D-01 -0.31976541D-02 -0.96403594D-04  0.77788416D-05
 -0.66005229D-06  0.22736341D-02  0.42071020D-02  0.73482987D-02  0.11492421D-01
  0.17138131D-01  0.20427766D-01  0.20238122D-01  0.63955311D-02 -0.10343391D-01
 -0.59395010D-02 -0.11534393D-03  0.31344180D-01  0.58219505D-01  0.10119393D+00
  0.15967418D+00  0.23689040D+00  0.28949411D+00  0.28916465D+00  0.10193179D+00
 -0.19894898D+00 -0.18286978D+00  0.87531647D-01  0.65022487D-01  0.00000000D+00
  0.00000000D+00  0.00000000D+00  0.00000000D+00  0.00000000D+00  0.00000000D+00
  0.00000000D+00  0.00000000D+00  0.00000000D+00  0.00000000D+00  0.00000000D+00
  0.00000000D+00  0.00000000D+00  0.00000000D+00 -0.12476024D+00 -0.15640003D+00
 -0.15633284D+00 -0.10771105D+00 -0.42020241D-01 -0.59063112D-02 -0.62429944D-04
 -0.00000000D+00 -0.00000000D+00 -0.00000000D+00 -0.00000000D+00 -0.00000000D+00
  0.00000000D+00  0.00000000D+00 -0.00000000D+00 -0.00000000D+00 -0.00000000D+00
 -0.00000000D+00 -0.00000000D+00  0.00000000D+00  0.00000000D+00 -0.22550393D+01
 -0.27570529D+01 -0.29478038D+01 -0.19792323D+01 -0.94259165D+00  0.60120878D-01
  0.23884332D+00  0.00000000D+00  0.00000000D+00  0.42727660D-01 -0.51422710D-02
  0.17937237D-01 -0.12794966D-01  0.00000000D+00  0.00000000D+00  0.00000000D+00
 -0.35374309D-01 -0.60003354D-01 -0.68294230D-01 -0.13395477D-01  0.16650248D-01
  0.00000000D+00 -0.31935319D-02 -0.35374309D-01 -0.60003354D-01 -0.68294230D-01
 -0.13395477D-01 -0.16650248D-01  0.00000000D+00 -0.31935319D-02
MO    9     MO 0.0        OCC NO =    2.0000000  ORB. ENERGY =    8.000000
  0.00000000D+00  0.00000000D+00  0.00000000D+00  0.00000000D+00  0.00000000D+00
  0.00000000D+00  0.00000000D+00  0.00000000D+00  0.00000000D+00 -0.00000000D+00
  0.00000000D+00 -0.00000000D+00 -0.00000000D+00 -0.00000000D+00 -0.00000000D+00
 -0.00000000D+00 -0.00000000D+00 -0.00000000D+00 -0.00000000D+00  0.00000000D+00
  0.00000000D+00  0.00000000D+00  0.00000000D+00  0.00000000D+00  0.00000000D+00
  0.00000000D+00  0.00000000D+00  0.00000000D+00  0.00000000D+00  0.00000000D+00
 -0.00000000D+00 -0.00000000D+00  0.00000000D+00  0.00000000D+00  0.00000000D+00
  0.00000000D+00  0.00000000D+00  0.00000000D+00  0.00000000D+00  0.00000000D+00
  0.00000000D+00 -0.51509646D-01 -0.64572737D-01 -0.64544998D-01 -0.44470561D-01
 -0.17348858D-01 -0.24385333D-02 -0.25775394D-04  0.00000000D+00  0.00000000D+00
  0.00000000D+00  0.00000000D+00  0.00000000D+00  0.00000000D+00  0.00000000D+00
 -0.00000000D+00 -0.00000000D+00 -0.00000000D+00 -0.00000000D+00 -0.00000000D+00
  0.00000000D+00  0.00000000D+00 -0.27798808D+01 -0.33987338D+01 -0.36338804D+01
 -0.24398820D+01 -0.11619720D+01  0.74113508D-01  0.29443210D+00 -0.00000000D+00
 -0.00000000D+00 -0.00000000D+00 -0.00000000D+00 -0.00000000D+00  0.00000000D+00
  0.00000000D+00  0.00000000D+00  0.68857832D-01  0.00000000D+00  0.00000000D+00
  0.00000000D+00  0.00000000D+00  0.00000000D+00  0.00000000D+00 -0.15749339D-01
  0.00000000D+00  0.00000000D+00  0.00000000D+00  0.00000000D+00  0.00000000D+00
  0.19217646D-01  0.00000000D+00  0.00000000D+00  0.00000000D+00  0.00000000D+00
  0.00000000D+00  0.00000000D+00  0.19217646D-01  0.00000000D+00
END DATA
RHF
