[Molden Format]
[Atoms] AU
 N     1  7     0.000000     0.000000     1.037082
 N     2  7     0.000000     0.000000    -1.037082
[GTO]
  1 0
 s   1 1.00
   9046.0000000000  1.00000000
 s   1 1.00
   1357.0000000000  1.00000000
 s   1 1.00
    309.3000000000  1.00000000
 s   1 1.00
     87.7300000000  1.00000000
 s   1 1.00
     28.5600000000  1.00000000
 s   1 1.00
     10.2100000000  1.00000000
 s   1 1.00
      3.8380000000  1.00000000
 s   1 1.00
      0.7466000000  1.00000000
 s   1 1.00
      0.2248000000  1.00000000
 p   1 1.00
     13.5500000000  1.00000000
 p   1 1.00
      2.9170000000  1.00000000
 p   1 1.00
      0.7973000000  1.00000000
 p   1 1.00
      0.2185000000  1.00000000
 d   1 1.00
      0.8170000000  1.00000000
  
  2 0
 s   1 1.00
   9046.0000000000  1.00000000
 s   1 1.00
   1357.0000000000  1.00000000
 s   1 1.00
    309.3000000000  1.00000000
 s   1 1.00
     87.7300000000  1.00000000
 s   1 1.00
     28.5600000000  1.00000000
 s   1 1.00
     10.2100000000  1.00000000
 s   1 1.00
      3.8380000000  1.00000000
 s   1 1.00
      0.7466000000  1.00000000
 s   1 1.00
      0.2248000000  1.00000000
 p   1 1.00
     13.5500000000  1.00000000
 p   1 1.00
      2.9170000000  1.00000000
 p   1 1.00
      0.7973000000  1.00000000
 p   1 1.00
      0.2185000000  1.00000000
 d   1 1.00
      0.8170000000  1.00000000
  
  
[MO]
 Ene=     0.0000
 Spin= Alpha
 Occup=   2.000000
      1      0.00049472
      2      0.00380861
      3      0.01936898
      4      0.07293925
      5      0.19698037
      6      0.31695637
      7      0.19659599
      8      0.01133401
      9     -0.00160296
     10      0.00000000
     11      0.00000000
     12     -0.00008091
     13      0.00000000
     14      0.00000000
     15     -0.00044018
     16      0.00000000
     17      0.00000000
     18     -0.00103437
     19      0.00000000
     20      0.00000000
     21      0.00058003
     22     -0.00020140
     23     -0.00020140
     24      0.00040281
     25      0.00000000
     26      0.00000000
     27      0.00000000
     28      0.00049472
     29      0.00380861
     30      0.01936898
     31      0.07293925
     32      0.19698037
     33      0.31695637
     34      0.19659599
     35      0.01133401
     36     -0.00160296
     37      0.00000000
     38      0.00000000
     39      0.00008091
     40      0.00000000
     41      0.00000000
     42      0.00044018
     43      0.00000000
     44      0.00000000
     45      0.00103437
     46      0.00000000
     47      0.00000000
     48     -0.00058003
     49     -0.00020140
     50     -0.00020140
     51      0.00040281
     52      0.00000000
     53      0.00000000
     54      0.00000000
 Ene=     0.0000
 Spin= Alpha
 Occup=   2.000000
      1      0.00049510
      2      0.00381142
      3      0.01938367
      4      0.07298951
      5      0.19711311
      6      0.31704329
      7      0.19658908
      8      0.01275558
      9     -0.00460267
     10      0.00000000
     11      0.00000000
     12     -0.00013933
     13      0.00000000
     14      0.00000000
     15     -0.00075799
     16      0.00000000
     17      0.00000000
     18     -0.00178118
     19      0.00000000
     20      0.00000000
     21      0.00138593
     22     -0.00060507
     23     -0.00060507
     24      0.00121014
     25      0.00000000
     26      0.00000000
     27      0.00000000
     28     -0.00049510
     29     -0.00381142
     30     -0.01938367
     31     -0.07298951
     32     -0.19711311
     33     -0.31704329
     34     -0.19658908
     35     -0.01275558
     36      0.00460267
     37      0.00000000
     38      0.00000000
     39     -0.00013933
     40      0.00000000
     41      0.00000000
     42     -0.00075799
     43      0.00000000
     44      0.00000000
     45     -0.00178118
     46      0.00000000
     47      0.00000000
     48      0.00138593
     49      0.00060507
     50      0.00060507
     51     -0.00121014
     52      0.00000000
     53      0.00000000
     54      0.00000000
 Ene=     0.0000
 Spin= Alpha
 Occup=   2.000000
      1     -0.00010796
      2     -0.00085120
      3     -0.00422805
      4     -0.01724013
      5     -0.04734153
      6     -0.10916208
      7     -0.08354646
      8      0.36547572
      9      0.19403924
     10      0.00000000
     11      0.00000000
     12     -0.01283224
     13      0.00000000
     14      0.00000000
     15     -0.06981049
     16      0.00000000
     17      0.00000000
     18     -0.16404560
     19      0.00000000
     20      0.00000000
     21     -0.03625127
     22     -0.01427300
     23     -0.01427300
     24      0.02854600
     25      0.00000000
     26      0.00000000
     27      0.00000000
     28     -0.00010796
     29     -0.00085120
     30     -0.00422805
     31     -0.01724013
     32     -0.04734153
     33     -0.10916208
     34     -0.08354646
     35      0.36547572
     36      0.19403924
     37      0.00000000
     38      0.00000000
     39      0.01283224
     40      0.00000000
     41      0.00000000
     42      0.06981049
     43      0.00000000
     44      0.00000000
     45      0.16404560
     46      0.00000000
     47      0.00000000
     48      0.03625127
     49     -0.01427300
     50     -0.01427300
     51      0.02854600
     52      0.00000000
     53      0.00000000
     54      0.00000000
 Ene=     0.0000
 Spin= Alpha
 Occup=   2.000000
      1     -0.00009744
      2     -0.00076981
      3     -0.00381613
      4     -0.01566266
      5     -0.04306579
      6     -0.10162436
      7     -0.07855531
      8      0.35837995
      9      0.42190694
     10      0.00000000
     11      0.00000000
     12      0.01272109
     13      0.00000000
     14      0.00000000
     15      0.06920582
     16      0.00000000
     17      0.00000000
     18      0.16262471
     19      0.00000000
     20      0.00000000
     21      0.11416531
     22      0.00670882
     23      0.00670882
     24     -0.01341764
     25      0.00000000
     26      0.00000000
     27      0.00000000
     28      0.00009744
     29      0.00076981
     30      0.00381613
     31      0.01566266
     32      0.04306579
     33      0.10162436
     34      0.07855531
     35     -0.35837995
     36     -0.42190694
     37      0.00000000
     38      0.00000000
     39      0.01272109
     40      0.00000000
     41      0.00000000
     42      0.06920582
     43      0.00000000
     44      0.00000000
     45      0.16262471
     46      0.00000000
     47      0.00000000
     48      0.11416531
     49     -0.00670882
     50     -0.00670882
     51      0.01341764
     52      0.00000000
     53      0.00000000
     54      0.00000000
 Ene=     0.0000
 Spin= Alpha
 Occup=   2.000000
      1     -0.00003732
      2     -0.00029305
      3     -0.00146130
      4     -0.00588219
      5     -0.01611067
      6     -0.03541325
      7     -0.02652185
      8      0.10500284
      9      0.33065860
     10      0.00000000
     11      0.00000000
     12      0.02675830
     13      0.00000000
     14      0.00000000
     15      0.14557159
     16      0.00000000
     17      0.00000000
     18      0.34207437
     19      0.00000000
     20      0.00000000
     21      0.21326941
     22      0.01249055
     23      0.01249055
     24     -0.02498109
     25      0.00000000
     26      0.00000000
     27      0.00000000
     28     -0.00003732
     29     -0.00029305
     30     -0.00146130
     31     -0.00588219
     32     -0.01611067
     33     -0.03541325
     34     -0.02652185
     35      0.10500284
     36      0.33065860
     37      0.00000000
     38      0.00000000
     39     -0.02675830
     40      0.00000000
     41      0.00000000
     42     -0.14557159
     43      0.00000000
     44      0.00000000
     45     -0.34207437
     46      0.00000000
     47      0.00000000
     48     -0.21326941
     49      0.01249055
     50      0.01249055
     51     -0.02498109
     52      0.00000000
     53      0.00000000
     54      0.00000000
 Ene=     0.0000
 Spin= Alpha
 Occup=   2.000000
      1      0.00000000
      2      0.00000000
      3      0.00000000
      4      0.00000000
      5      0.00000000
      6      0.00000000
      7      0.00000000
      8      0.00000000
      9      0.00000000
     10      0.00000000
     11      0.02511994
     12      0.00000000
     13      0.00000000
     14      0.13665855
     15      0.00000000
     16      0.00000000
     17      0.32112986
     18      0.00000000
     19      0.00000000
     20      0.25689935
     21      0.00000000
     22      0.00000000
     23      0.00000000
     24      0.00000000
     25      0.00000000
     26      0.00000000
     27     -0.04754147
     28      0.00000000
     29      0.00000000
     30      0.00000000
     31      0.00000000
     32      0.00000000
     33      0.00000000
     34      0.00000000
     35      0.00000000
     36      0.00000000
     37      0.00000000
     38      0.02511994
     39      0.00000000
     40      0.00000000
     41      0.13665855
     42      0.00000000
     43      0.00000000
     44      0.32112986
     45      0.00000000
     46      0.00000000
     47      0.25689935
     48      0.00000000
     49      0.00000000
     50      0.00000000
     51      0.00000000
     52      0.00000000
     53      0.00000000
     54      0.04754147
 Ene=     0.0000
 Spin= Alpha
 Occup=   2.000000
      1      0.00000000
      2      0.00000000
      3      0.00000000
      4      0.00000000
      5      0.00000000
      6      0.00000000
      7      0.00000000
      8      0.00000000
      9      0.00000000
     10      0.02511994
     11      0.00000000
     12      0.00000000
     13      0.13665855
     14      0.00000000
     15      0.00000000
     16      0.32112986
     17      0.00000000
     18      0.00000000
     19      0.25689935
     20      0.00000000
     21      0.00000000
     22      0.00000000
     23      0.00000000
     24      0.00000000
     25      0.00000000
     26     -0.04754147
     27      0.00000000
     28      0.00000000
     29      0.00000000
     30      0.00000000
     31      0.00000000
     32      0.00000000
     33      0.00000000
     34      0.00000000
     35      0.00000000
     36      0.00000000
     37      0.02511994
     38      0.00000000
     39      0.00000000
     40      0.13665855
     41      0.00000000
     42      0.00000000
     43      0.32112986
     44      0.00000000
     45      0.00000000
     46      0.25689935
     47      0.00000000
     48      0.00000000
     49      0.00000000
     50      0.00000000
     51      0.00000000
     52      0.00000000
     53      0.04754147
     54      0.00000000
