From PySCF
GAUSSIAN              5 MOL ORBITALS     41 PRIMITIVES        3 NUCLEI
  O    1    (CENTRE  1)   0.00000000  0.00000000  0.22166487  CHARGE = 8.0
  H    2    (CENTRE  2)   1.43090062  0.00000000 -0.88665950  CHARGE = 1.0
  H    3    (CENTRE  3)  -1.43090062  0.00000000 -0.88665950  CHARGE = 1.0
CENTRE ASSIGNMENTS    1  1  1  1  1  1  1  1  1  1  1  1  1  1  1  1  1  1  1  1
CENTRE ASSIGNMENTS    1  1  1  1  1  1  1  2  2  2  2  2  2  2  3  3  3  3  3  3
CENTRE ASSIGNMENTS    3
TYPE ASSIGNMENTS      1  1  1  1  1  1  1  1  1  2  2  2  3  3  3  4  4  4  2  3
TYPE ASSIGNMENTS      4  5  8  9  6 10  7  1  1  1  1  2  3  4  1  1  1  1  2  3
TYPE ASSIGNMENTS      4
EXPONENTS  1.1720000E+04 1.7590000E+03 4.0080000E+02 1.1370000E+02 3.7030000E+01
EXPONENTS  1.3270000E+01 5.0250000E+00 1.0130000E+00 3.0230000E-01 1.7700000E+01
EXPONENTS  3.8540000E+00 1.0460000E+00 1.7700000E+01 3.8540000E+00 1.0460000E+00
EXPONENTS  1.7700000E+01 3.8540000E+00 1.0460000E+00 2.7530000E-01 2.7530000E-01
EXPONENTS  2.7530000E-01 1.1850000E+00 1.1850000E+00 1.1850000E+00 1.1850000E+00
EXPONENTS  1.1850000E+00 1.1850000E+00 1.3010000E+01 1.9620000E+00 4.4460000E-01
EXPONENTS  1.2200000E-01 7.2700000E-01 7.2700000E-01 7.2700000E-01 1.3010000E+01
EXPONENTS  1.9620000E+00 4.4460000E-01 1.2200000E-01 7.2700000E-01 7.2700000E-01
EXPONENTS  7.2700000E-01
MO  1                     OCC NO =   2.00000000 ORB. ENERGY = -20.55053837
  5.69917765E-01  1.05873994E+00  1.77695558E+00  2.60027765E+00  3.02781798E+00
  2.22250309E+00  6.47733026E-01  1.20528976E-02 -7.75438109E-04  0.00000000E+00
  0.00000000E+00  0.00000000E+00  0.00000000E+00  0.00000000E+00  0.00000000E+00
 -5.71444768E-03 -4.52290596E-03 -1.96905438E-03  0.00000000E+00  0.00000000E+00
  1.37972894E-04  2.51071130E-04  0.00000000E+00  0.00000000E+00 -2.75407791E-04
  0.00000000E+00  2.43366607E-05 -3.90400858E-05 -6.62213945E-05 -7.53714393E-05
  6.19988741E-05  5.45550935E-04  0.00000000E+00 -4.60467489E-04 -3.90400858E-05
 -6.62213945E-05 -7.53714393E-05  6.19988741E-05 -5.45550935E-04  0.00000000E+00
 -4.60467489E-04
MO  2                     OCC NO =   2.00000000 ORB. ENERGY =  -1.33644816
 -1.16480470E-01 -2.21499145E-01 -3.62835621E-01 -5.76817081E-01 -6.85316656E-01
 -7.31706067E-01 -2.48833634E-01  3.49067395E-01  1.09263936E-01  0.00000000E+00
  0.00000000E+00  0.00000000E+00  0.00000000E+00  0.00000000E+00  0.00000000E+00
 -2.55475876E-01 -2.02205607E-01 -8.80305361E-02  0.00000000E+00  0.00000000E+00
  3.70272227E-03  4.39152873E-03  0.00000000E+00  0.00000000E+00 -7.14902837E-03
  0.00000000E+00  2.75749964E-03  3.16317887E-02  5.36551371E-02  6.10688576E-02
  1.48523357E-03 -3.56843804E-02  0.00000000E+00  1.95973754E-02  3.16317887E-02
  5.36551371E-02  6.10688576E-02  1.48523357E-03  3.56843804E-02  0.00000000E+00
  1.95973754E-02
MO  3                     OCC NO =   2.00000000 ORB. ENERGY =  -0.69895149
  0.00000000E+00  0.00000000E+00  0.00000000E+00  0.00000000E+00  0.00000000E+00
  0.00000000E+00  0.00000000E+00  0.00000000E+00  0.00000000E+00  1.58913252E+00
  1.25777631E+00  5.47574938E-01  0.00000000E+00  0.00000000E+00  0.00000000E+00
  0.00000000E+00  0.00000000E+00  0.00000000E+00  6.31225569E-02  0.00000000E+00
  0.00000000E+00  0.00000000E+00  0.00000000E+00 -1.02811543E-01  0.00000000E+00
  0.00000000E+00  0.00000000E+00  5.36226800E-02  9.09569888E-02  1.03524838E-01
  1.32252069E-02 -2.23050502E-02  0.00000000E+00  3.12569803E-02 -5.36226800E-02
 -9.09569888E-02 -1.03524838E-01 -1.32252069E-02 -2.23050502E-02  0.00000000E+00
 -3.12569803E-02
MO  4                     OCC NO =   2.00000000 ORB. ENERGY =  -0.56654332
 -3.91991343E-02 -7.45564300E-02 -1.22103927E-01 -1.94252682E-01 -2.30829601E-01
 -2.47076331E-01 -8.40905597E-02  1.18530085E-01  1.01620061E-01  0.00000000E+00
  0.00000000E+00  0.00000000E+00  0.00000000E+00  0.00000000E+00  0.00000000E+00
  1.76907287E+00  1.40019660E+00  6.09577840E-01  0.00000000E+00  0.00000000E+00
  1.03836552E-01  1.09820683E-02  0.00000000E+00  0.00000000E+00  2.86081107E-02
  0.00000000E+00 -3.95901789E-02 -3.37630486E-02 -5.72702677E-02 -6.51835036E-02
 -5.94631403E-03  3.03934569E-02  0.00000000E+00  7.19304102E-03 -3.37630486E-02
 -5.72702677E-02 -6.51835036E-02 -5.94631403E-03 -3.03934569E-02  0.00000000E+00
  7.19304102E-03
MO  5                     OCC NO =   2.00000000 ORB. ENERGY =  -0.49312113
  0.00000000E+00  0.00000000E+00  0.00000000E+00  0.00000000E+00  0.00000000E+00
  0.00000000E+00  0.00000000E+00  0.00000000E+00  0.00000000E+00  0.00000000E+00
  0.00000000E+00  0.00000000E+00  2.04734401E+00  1.62044434E+00  7.05463049E-01
  0.00000000E+00  0.00000000E+00  0.00000000E+00  0.00000000E+00  1.40893082E-01
  0.00000000E+00  0.00000000E+00  0.00000000E+00  0.00000000E+00  0.00000000E+00
 -6.98380075E-02  0.00000000E+00  0.00000000E+00  0.00000000E+00  0.00000000E+00
  0.00000000E+00  0.00000000E+00  2.97221097E-02  0.00000000E+00  0.00000000E+00
  0.00000000E+00  0.00000000E+00  0.00000000E+00  0.00000000E+00  2.97221097E-02
  0.00000000E+00
END DATA
RHF      ENERGY =        0.0000000000   VIRIAL(-V/T)  =   0.00000000
